chemcompute.org
{'UTCtimestamp': '2022-10-04T21:17:50.080756', 'cluster': 'jetstream2', 'clusterJobNumber': '120810', 'status': 'RUNNING', 'nodeList': 'chemcompute-node-1'}
----- GAMESS execution script 'rungms' -----
This job is running on host chemcompute-node-1.novalocal
under operating system Linux at Tue Oct 4 21:17:53 UTC 2022
SLURM has assigned the following compute nodes to this run:
Available scratch disk space (Kbyte units) at beginning of the job is
Filesystem     1K-blocks     Used Available Use% Mounted on
/dev/sda1       62903276 11392692  51510584  19% /
GAMESS temporary binary files will be written to /scratch/120810
GAMESS supplementary output files will be written to /data/slurm/46/460767
Copying input file 460767.inp to your run's scratch directory...
The generated host list is
chemcompute-node-1.novalocal

 Distributed Data Interface kickoff program.
 Initiating 1 compute processes on 1 nodes to run the following command:
 /data/gamess-2019R1-avx2-ddi/gamess.00.x 460767 

          ******************************************************
          *         GAMESS VERSION = 30 JUN 2019 (R1)          *
          *             FROM IOWA STATE UNIVERSITY             *
          * M.W.SCHMIDT, K.K.BALDRIDGE, J.A.BOATZ, S.T.ELBERT, *
          *   M.S.GORDON, J.H.JENSEN, S.KOSEKI, N.MATSUNAGA,   *
          *          K.A.NGUYEN, S.J.SU, T.L.WINDUS,           *
          *       TOGETHER WITH M.DUPUIS, J.A.MONTGOMERY       *
          *         J.COMPUT.CHEM.  14, 1347-1363(1993)        *
          **************** 64 BIT INTEL VERSION ****************

  SINCE 1993, STUDENTS AND POSTDOCS WORKING AT IOWA STATE UNIVERSITY
  AND ALSO IN THEIR VARIOUS JOBS AFTER LEAVING ISU HAVE MADE IMPORTANT
  CONTRIBUTIONS TO THE CODE:
     IVANA ADAMOVIC, CHRISTINE AIKENS, YURI ALEXEEV, POOJA ARORA,
     ANDREY ASADCHEV, ROB BELL, PRADIPTA BANDYOPADHYAY, JONATHAN BENTZ,
     COLLEEN BERTONI, BRETT BODE, KURT BRORSEN, CALEB CARLIN, GALINA CHABAN,
     WEI CHEN, CHEOL HO CHOI, PAUL DAY, ALBERT DEFUSCO, NUWAN DESILVA,
     TIM DUDLEY, DMITRI FEDOROV, ALEX FINDLATER, GRAHAM FLETCHER, 
     MARK FREITAG, KURT GLAESEMANN, ANASTASIA GUNINA,
     DAN KEMP, GRANT MERRILL, NORIYUKI MINEZAWA, JONATHAN MULLIN,
     TAKESHI NAGATA, SEAN NEDD, HEATHER NETZLOFF, BOSILJKA NJEGIC, RYAN OLSON,
     MIKE PAK, BUU PHAM,
     SPENCER PRUITT, LUKE ROSKOP, JIM SHOEMAKER, LYUDMILA SLIPCHENKO,
     TONY SMITH, SAROM SOK LEANG, JIE SONG, TETSUYA TAKETSUGU, SIMON WEBB,
     PENG XU, SOOHAENG YOO, FEDERICO ZAHARIEV

  ADDITIONAL CODE HAS BEEN PROVIDED BY COLLABORATORS IN OTHER GROUPS:
     IOWA STATE UNIVERSITY:
          JOE IVANIC, AARON WEST, LAIMUTIS BYTAUTAS, KLAUS RUEDENBERG
     UNIVERSITY OF TOKYO: KIMIHIKO HIRAO, TAKAHITO NAKAJIMA,
          TAKAO TSUNEDA, MUNEAKI KAMIYA, SUSUMU YANAGISAWA,
          KIYOSHI YAGI, MAHITO CHIBA, SEIKEN TOKURA, NAOAKI KAWAKAMI
     UNIVERSITY OF AARHUS: FRANK JENSEN
     UNIVERSITY OF IOWA: VISVALDAS KAIRYS, HUI LI
     NATIONAL INST. OF STANDARDS AND TECHNOLOGY: WALT STEVENS, DAVID GARMER
     UNIVERSITY OF PISA: BENEDETTA MENNUCCI, JACOPO TOMASI
     UNIVERSITY OF MEMPHIS: HENRY KURTZ, PRAKASHAN KORAMBATH
     UNIVERSITY OF ALBERTA: TOBY ZENG, MARIUSZ KLOBUKOWSKI
     UNIVERSITY OF NEW ENGLAND: MARK SPACKMAN
     MIE UNIVERSITY: HIROAKI UMEDA
     NAT. INST. OF ADVANCED INDUSTRIAL SCIENCE AND TECHNOLOGY: KAZUO KITAURA
     MICHIGAN STATE UNIVERSITY:
          KAROL KOWALSKI, MARTA WLOCH, JEFFREY GOUR, JESSE LUTZ,
          WEI LI, JUN SHEN, J. EMILIANO DEUSTUA, PIOTR PIECUCH
     UNIVERSITY OF MINNESOTA:
          YINAN SHU
     UNIVERSITY OF SILESIA: MONIKA MUSIAL, STANISLAW KUCHARSKI
     FACULTES UNIVERSITAIRES NOTRE-DAME DE LA PAIX:
          OLIVIER QUINET, BENOIT CHAMPAGNE
     UNIVERSITY OF CALIFORNIA - SANTA BARBARA: BERNARD KIRTMAN
     INSTITUTE FOR MOLECULAR SCIENCE:
          KAZUYA ISHIMURA, MICHIO KATOUDA, AND SHIGERU NAGASE
     UNIVERSITY OF NOTRE DAME: ANNA POMOGAEVA, DAN CHIPMAN
     KYUSHU UNIVERSITY:
          HARUYUKI NAKANO,
          FENG LONG GU, JACEK KORCHOWIEC, MARCIN MAKOWSKI, AND YURIKO AOKI,
          HIROTOSHI MORI AND EISAKU MIYOSHI
     PENNSYLVANIA STATE UNIVERSITY:
          TZVETELIN IORDANOV, CHET SWALINA, JONATHAN SKONE,
          SHARON HAMMES-SCHIFFER
     WASEDA UNIVERSITY:
          MASATO KOBAYASHI, TOMOKO AKAMA, TSUGUKI TOUMA,
          TAKESHI YOSHIKAWA, YASUHIRO IKABATA, JUNJI SEINO,
          YUYA NAKAJIMA, HIROMI NAKAI
     NANJING UNIVERSITY: SHUHUA LI
     UNIVERSITY OF NEBRASKA:
          PEIFENG SU, DEJUN SI, NANDUN THELLAMUREGE, YALI WANG, HUI LI
     UNIVERSITY OF ZURICH: ROBERTO PEVERATI, KIM BALDRIDGE
     N. COPERNICUS UNIVERSITY AND JACKSON STATE UNIVERSITY:
          MARIA BARYSZ
     UNIVERSITY OF COPENHAGEN: Jimmy Kromann, CASPER STEINMANN
     TOKYO INSTITUTE OF TECHNOLOGY: HIROYA NAKATA
     NAGOYA UNIVERSITY: YOSHIO NISHIMOTO, STEPHAN IRLE
     MOSCOW STATE UNIVERSITY: VLADIMIR MIRONOV
     A.N.NESMEYANOV INSTITUTE OF ORGANOELEMENT COMPOUNDS OF RUSSIAN ACADEMY OF SCIENCES:
          IGOR S. GERASIMOV

 EXECUTION OF GAMESS BEGUN Tue Oct  4 21:17:53 2022

            ECHO OF THE FIRST FEW INPUT CARDS -
 INPUT CARD>!                                                                               
 INPUT CARD>!   GAMESS Calculation input file                                               
 INPUT CARD>!   Molecula de prueba AYG                                                      
 INPUT CARD>!                                                                               
 INPUT CARD> $CONTRL SCFTYP=RHF MAXIT=200 RUNTYP=OPTIMIZE                                   
 INPUT CARD>         COORD=UNIQUE MULT=1                                                    
 INPUT CARD>         ICHARG=0                                                               
 INPUT CARD>         DFTTYP=B3LYP                                                           
 INPUT CARD>         MOLPLT=.FALSE. PLTORB=.FALSE.  $END                                    
 INPUT CARD> $SYSTEM TIMLIM=2879 MWORDS=250  $END                                           
 INPUT CARD>                                                                                
 INPUT CARD> $FORCE METHOD=SEMINUM NVIB=2 $END                                              
 INPUT CARD> $STATPT OPTTOL=0.0005 NSTEP=999 $END                                           
 INPUT CARD> $STATPT IHREP=0 HSSEND=.TRUE.  $END                                            
 INPUT CARD>                                                                                
 INPUT CARD> $DFT    METHOD=GRID  NLEB=590  $END                                            
 INPUT CARD>                                                                                
 INPUT CARD> $BASIS  GBASIS=N31 NGAUSS=6                                                    
 INPUT CARD>         NDFUNC=1   NPFUNC=0  $END                                              
 INPUT CARD>                                                                                
 INPUT CARD> $SCF    DIRSCF=.T. $END                                                        
 INPUT CARD> $GUESS  GUESS=HUCKEL  $END                                                     
 INPUT CARD>                                                                                
 INPUT CARD> $DATA                                                                          
 INPUT CARD>   Molecula de prueba AYG                                                       
 INPUT CARD>  C1                                                                            
 INPUT CARD>O     8.0    -0.72340     1.26122     0.13240                                   
 INPUT CARD>C     6.0    -0.89785     0.06467    -0.03452                                   
 INPUT CARD>C     6.0     0.20377    -0.93263    -0.08006                                   
 INPUT CARD>C     6.0     1.48489    -0.55098    -0.03257                                   
 INPUT CARD>H     1.0    -1.90752    -0.36366    -0.16576                                   
 INPUT CARD>H     1.0    -0.08068    -1.97654    -0.15787                                   
 INPUT CARD>H     1.0     1.76303     0.49864     0.04128                                   
 INPUT CARD>H     1.0     2.28994    -1.27988    -0.06688                                   
 INPUT CARD> $END                                                                           
 INPUT CARD>                                                                                
 INPUT CARD>                                                                                
 INPUT CARD>! Customizations after this line are persisted when using Do More Calculations  
  250000000 WORDS OF MEMORY AVAILABLE

     BASIS OPTIONS
     -------------
     GBASIS=N31          IGAUSS=       6      POLAR=POPN31  
     NDFUNC=       1     NFFUNC=       0     DIFFSP=       F
     NPFUNC=       0      DIFFS=       F     BASNAM=        


     RUN TITLE
     ---------
    Molecula de prueba AYG                                                       

 THE POINT GROUP OF THE MOLECULE IS C1      
 THE ORDER OF THE PRINCIPAL AXIS IS     0

 ATOM      ATOMIC                      COORDINATES (BOHR)
           CHARGE         X                   Y                   Z
 O           8.0    -1.3670277795        2.3833602102        0.2501997208
 C           6.0    -1.6966904781        0.1222085796       -0.0652333411
 C           6.0     0.3850694645       -1.7624151479       -0.1512914626
 C           6.0     2.8060352219       -1.0412012247       -0.0615483754
 H           1.0    -3.6046901161       -0.6872177527       -0.3132409797
 H           1.0    -0.1524630927       -3.7351190038       -0.2983310417
 H           1.0     3.3316436081        0.9422929665        0.0780078888
 H           1.0     4.3273591283       -2.4186224972       -0.1263848741

          INTERNUCLEAR DISTANCES (ANGS.)
          ------------------------------

                1 O          2 C          3 C          4 C          5 H     

   1 O       0.0000000    1.2206666 *  2.3911841 *  2.8614382 *  2.0325537 *
   2 C       1.2206666 *  0.0000000    1.4866902 *  2.4609914 *  1.1045922 *
   3 C       2.3911841 *  1.4866902 *  0.0000000    1.3376025 *  2.1882908 *
   4 C       2.8614382 *  2.4609914 *  1.3376025 *  0.0000000    3.4001873  
   5 H       2.0325537 *  1.1045922 *  2.1882908 *  3.4001873    0.0000000  
   6 H       3.3136740    2.2021626 *  1.0847646 *  2.1210683 *  2.4369630 *
   7 H       2.6023384 *  2.6971018 *  2.1200351 *  1.0883556 *  3.7761573  
   8 H       3.9467860    3.4598941    2.1149141 *  1.0865440 *  4.2974303  

                6 H          7 H          8 H     

   1 O       3.3136740    2.6023384 *  3.9467860  
   2 C       2.2021626 *  2.6971018 *  3.4598941  
   3 C       1.0847646 *  2.1200351 *  2.1149141 *
   4 C       2.1210683 *  1.0883556 *  1.0865440 *
   5 H       2.4369630 *  3.7761573    4.2974303  
   6 H       0.0000000    3.0928051    2.4725399 *
   7 H       3.0928051    0.0000000    1.8580813 *
   8 H       2.4725399 *  1.8580813 *  0.0000000  

  * ... LESS THAN  3.000


     ATOMIC BASIS SET
     ----------------
 THE CONTRACTED PRIMITIVE FUNCTIONS HAVE BEEN UNNORMALIZED
 THE CONTRACTED BASIS FUNCTIONS ARE NOW NORMALIZED TO UNITY

  SHELL TYPE  PRIMITIVE        EXPONENT          CONTRACTION COEFFICIENT(S)

 O         

      1   S       1          5484.6716600    0.001831074430
      1   S       2           825.2349460    0.013950172200
      1   S       3           188.0469580    0.068445078098
      1   S       4            52.9645000    0.232714335992
      1   S       5            16.8975704    0.470192897984
      1   S       6             5.7996353    0.358520852987

      2   L       7            15.5396162   -0.110777549525    0.070874268231
      2   L       8             3.5999336   -0.148026262701    0.339752839147
      2   L       9             1.0137618    1.130767015354    0.727158577316

      3   L      10             0.2700058    1.000000000000    1.000000000000

      4   D      11             0.8000000    1.000000000000

 C         

      5   S      12          3047.5248800    0.001834737132
      5   S      13           457.3695180    0.014037322813
      5   S      14           103.9486850    0.068842622264
      5   S      15            29.2101553    0.232184443216
      5   S      16             9.2866630    0.467941348435
      5   S      17             3.1639270    0.362311985337

      6   L      18             7.8682723   -0.119332419775    0.068999066591
      6   L      19             1.8812885   -0.160854151696    0.316423960957
      6   L      20             0.5442493    1.143456437840    0.744308290898

      7   L      21             0.1687145    1.000000000000    1.000000000000

      8   D      22             0.8000000    1.000000000000

 C         

      9   S      23          3047.5248800    0.001834737132
      9   S      24           457.3695180    0.014037322813
      9   S      25           103.9486850    0.068842622264
      9   S      26            29.2101553    0.232184443216
      9   S      27             9.2866630    0.467941348435
      9   S      28             3.1639270    0.362311985337

     10   L      29             7.8682723   -0.119332419775    0.068999066591
     10   L      30             1.8812885   -0.160854151696    0.316423960957
     10   L      31             0.5442493    1.143456437840    0.744308290898

     11   L      32             0.1687145    1.000000000000    1.000000000000

     12   D      33             0.8000000    1.000000000000

 C         

     13   S      34          3047.5248800    0.001834737132
     13   S      35           457.3695180    0.014037322813
     13   S      36           103.9486850    0.068842622264
     13   S      37            29.2101553    0.232184443216
     13   S      38             9.2866630    0.467941348435
     13   S      39             3.1639270    0.362311985337

     14   L      40             7.8682723   -0.119332419775    0.068999066591
     14   L      41             1.8812885   -0.160854151696    0.316423960957
     14   L      42             0.5442493    1.143456437840    0.744308290898

     15   L      43             0.1687145    1.000000000000    1.000000000000

     16   D      44             0.8000000    1.000000000000

 H         

     17   S      45            18.7311370    0.033494604338
     17   S      46             2.8253944    0.234726953484
     17   S      47             0.6401217    0.813757326146

     18   S      48             0.1612778    1.000000000000

 H         

     19   S      49            18.7311370    0.033494604338
     19   S      50             2.8253944    0.234726953484
     19   S      51             0.6401217    0.813757326146

     20   S      52             0.1612778    1.000000000000

 H         

     21   S      53            18.7311370    0.033494604338
     21   S      54             2.8253944    0.234726953484
     21   S      55             0.6401217    0.813757326146

     22   S      56             0.1612778    1.000000000000

 H         

     23   S      57            18.7311370    0.033494604338
     23   S      58             2.8253944    0.234726953484
     23   S      59             0.6401217    0.813757326146

     24   S      60             0.1612778    1.000000000000

 TOTAL NUMBER OF BASIS SET SHELLS             =   24
 NUMBER OF CARTESIAN GAUSSIAN BASIS FUNCTIONS =   68
 NUMBER OF ELECTRONS                          =   30
 CHARGE OF MOLECULE                           =    0
 SPIN MULTIPLICITY                            =    1
 NUMBER OF OCCUPIED ORBITALS (ALPHA)          =   15
 NUMBER OF OCCUPIED ORBITALS (BETA )          =   15
 TOTAL NUMBER OF ATOMS                        =    8
 THE NUCLEAR REPULSION ENERGY IS      104.3733945797

 SELECTED MURRAY-HANDY-LAMING RADIAL GRID

 LEGACY BECKE'S FUZZY CELL METHOD

 SELECTED ORIGINAL BECKE'S PARTITION FUNCTION

     LEBEDEV GRID-BASED DFT OPTIONS
     ------------------------------
     DFTTYP=B3LYP   
     NRAD  =      96     NLEB  =     590
     NRAD0 =      24     NLEB0 =     110
     SWOFF =    5.00E-03 (PURE SCF -> DFT)
     SWITCH=    3.00E-04 (COARSE -> TIGHT GRID)
     THRESH=    0.00E+00 GTHRE=    1.00E+00

 GRIMME'S EMPIRICAL DISPERSION CORRECTION= F

     $CONTRL OPTIONS
     ---------------
 SCFTYP=RHF          RUNTYP=OPTIMIZE     EXETYP=RUN     
 MPLEVL=       0     CITYP =NONE         CCTYP =NONE         VBTYP =NONE    
 DFTTYP=B3LYP        TDDFT =NONE    
 MULT  =       1     ICHARG=       0     NZVAR =       0     COORD =UNIQUE  
 PP    =NONE         RELWFN=NONE         LOCAL =NONE         NUMGRD=       F
 ISPHER=      -1     NOSYM =       0     MAXIT =     200     UNITS =ANGS    
 PLTORB=       F     MOLPLT=       F     AIMPAC=       F     FRIEND=        
 NPRINT=       7     IREST =       0     GEOM  =INPUT   
 NORMF =       0     NORMP =       0     ITOL  =      20     ICUT  =       9
 INTTYP=BEST         GRDTYP=BEST         QMTTOL= 1.0E-06

     $SYSTEM OPTIONS
     ---------------
  REPLICATED MEMORY=   250000000 WORDS (ON EVERY NODE).
 DISTRIBUTED MEMDDI=           0 MILLION WORDS IN AGGREGATE,
 MEMDDI DISTRIBUTED OVER   1 PROCESSORS IS           0 WORDS/PROCESSOR.
 TOTAL MEMORY REQUESTED ON EACH PROCESSOR=   250000000 WORDS.
 TIMLIM=        2879.00 MINUTES, OR       2.0 DAYS.
 PARALL= F  BALTYP=  DLB     KDIAG=    0  COREFL= F
 MXSEQ2=     300 MXSEQ3=     150  mem10=         0

          ----------------
          PROPERTIES INPUT
          ----------------

     MOMENTS            FIELD           POTENTIAL          DENSITY
 IEMOM =       1   IEFLD =       0   IEPOT =       0   IEDEN =       0
 WHERE =COMASS     WHERE =NUCLEI     WHERE =NUCLEI     WHERE =NUCLEI  
 OUTPUT=BOTH       OUTPUT=BOTH       OUTPUT=BOTH       OUTPUT=BOTH    
 IEMINT=       0   IEFINT=       0                     IEDINT=       0
                                                       MORB  =       0
          EXTRAPOLATION IN EFFECT
          DIIS IN EFFECT
 ORBITAL PRINTING OPTION: NPREO=     1    68     2     1

     -------------------------------
     INTEGRAL TRANSFORMATION OPTIONS
     -------------------------------
     NWORD  =            0
     CUTOFF = 1.0E-09     MPTRAN =       0
     DIRTRF =       T     AOINTS =DUP     

          ----------------------
          INTEGRAL INPUT OPTIONS
          ----------------------
 NOPK  =       1 NORDER=       0 SCHWRZ=       T

     ------------------------------------------
     THE POINT GROUP IS C1 , NAXIS= 0, ORDER= 1
     ------------------------------------------

     DIMENSIONS OF THE SYMMETRY SUBSPACES ARE
 A   =   68

 ..... DONE SETTING UP THE RUN .....
 STEP CPU TIME =     0.01 TOTAL CPU TIME =          0.0 (      0.0 MIN)
 TOTAL WALL CLOCK TIME=          0.0 SECONDS, CPU UTILIZATION IS    33.33%


          -----------------------------
          STATIONARY POINT LOCATION RUN
          -----------------------------

 OBTAINING INITIAL HESSIAN, HESS=GUESS   
 CARTESIAN COORDINATE OPTIMIZATION USING BADGER'S RULE FORCE CONSTANT GUESS

          PARAMETERS CONTROLLING GEOMETRY SEARCH ARE
          METHOD =QA                  UPHESS =BFGS    
          NNEG   =         0          NFRZ   =         0
          NSTEP  =       999          IFOLOW =         1
          HESS   =GUESS               RESTAR =         F
          IHREP  =         0          HSSEND =         T
          NPRT   =         0          NPUN   =         0
          OPTTOL = 5.000E-04          RMIN   = 1.500E-03
          RMAX   = 1.000E-01          RLIM   = 7.000E-02
          DXMAX  = 3.000E-01          PURIFY =         F
          MOVIE  =         F          TRUPD  =         T
          TRMAX  = 5.000E-01          TRMIN  = 5.000E-02
          ITBMAT =         5          STPT   =         F
          STSTEP = 1.000E-02          PROJCT=          T

 BEGINNING GEOMETRY SEARCH POINT NSERCH=   0 ...

 COORDINATES OF ALL ATOMS ARE (ANGS)
   ATOM   CHARGE       X              Y              Z
 ------------------------------------------------------------
 O           8.0  -0.7234000000   1.2612200000   0.1324000000
 C           6.0  -0.8978500000   0.0646700000  -0.0345200000
 C           6.0   0.2037700000  -0.9326300000  -0.0800600000
 C           6.0   1.4848900000  -0.5509800000  -0.0325700000
 H           1.0  -1.9075200000  -0.3636600000  -0.1657600000
 H           1.0  -0.0806800000  -1.9765400000  -0.1578700000
 H           1.0   1.7630300000   0.4986400000   0.0412800000
 H           1.0   2.2899400000  -1.2798800000  -0.0668800000

          ********************
          1 ELECTRON INTEGRALS
          ********************
 ...... END OF ONE-ELECTRON INTEGRALS ......
 STEP CPU TIME =     0.00 TOTAL CPU TIME =          0.0 (      0.0 MIN)
 TOTAL WALL CLOCK TIME=          0.0 SECONDS, CPU UTILIZATION IS    25.00%

          -------------
          GUESS OPTIONS
          -------------
          GUESS =HUCKEL            NORB  =       0          NORDER=       0
          MIX   =       F          PRTMO =       F          PUNMO =       F
          TOLZ  = 1.0E-08          TOLE  = 1.0E-05
          SYMDEN=       F          PURIFY=       F

 INITIAL GUESS ORBITALS GENERATED BY HUCKEL   ROUTINE.
 HUCKEL GUESS REQUIRES     42032 WORDS.

 SYMMETRIES FOR INITIAL GUESS ORBITALS FOLLOW.   BOTH SET(S).
    15 ORBITALS ARE OCCUPIED (    4 CORE ORBITALS).
     5=A        6=A        7=A        8=A        9=A       10=A       11=A   
    12=A       13=A       14=A       15=A       16=A       17=A       18=A   
    19=A       20=A       21=A       22=A       23=A       24=A       25=A   
 ...... END OF INITIAL ORBITAL SELECTION ......
 STEP CPU TIME =     0.01 TOTAL CPU TIME =          0.0 (      0.0 MIN)
 TOTAL WALL CLOCK TIME=          0.1 SECONDS, CPU UTILIZATION IS    33.33%

                    ----------------------
                    AO INTEGRAL TECHNOLOGY
                    ----------------------
     S,P,L SHELL ROTATED AXIS INTEGRALS, REPROGRAMMED BY
        KAZUYA ISHIMURA (IMS) AND JOSE SIERRA (SYNSTAR).
     S,P,D,L SHELL ROTATED AXIS INTEGRALS PROGRAMMED BY
        KAZUYA ISHIMURA (INSTITUTE FOR MOLECULAR SCIENCE).
     S,P,D,F,G SHELL TO TOTAL QUARTET ANGULAR MOMENTUM SUM 5,
        ERIC PROGRAM BY GRAHAM FLETCHER (ELORET AND NASA ADVANCED
        SUPERCOMPUTING DIVISION, AMES RESEARCH CENTER).
     S,P,D,F,G,L SHELL GENERAL RYS QUADRATURE PROGRAMMED BY
        MICHEL DUPUIS (PACIFIC NORTHWEST NATIONAL LABORATORY).

          --------------------
          2 ELECTRON INTEGRALS
          --------------------

 DIRECT SCF METHOD SKIPS INTEGRAL STORAGE ON DISK.
 DIRECT TRANSFORMATION SKIPS AO INTEGRAL STORAGE ON DISK.
  ...... END OF TWO-ELECTRON INTEGRALS .....
 STEP CPU TIME =     0.01 TOTAL CPU TIME =          0.0 (      0.0 MIN)
 TOTAL WALL CLOCK TIME=          0.1 SECONDS, CPU UTILIZATION IS    42.86%

          --------------------------
             R-B3LYP SCF CALCULATION
          --------------------------

     NUCLEAR ENERGY =       104.3733945797
     MAXIT =  200     NPUNCH=    2
     EXTRAP=T  DAMP=F  SHIFT=F  RSTRCT=F  DIIS=T  DEM=F  SOSCF=F
         DENSITY MATRIX CONVERGENCE THRESHOLD=  2.00E-05
     COARSE -> FINE DFT GRID SWITCH THRESHOLD=  3.00E-04 (SWITCH IN $DFT)
                   HF -> DFT SWITCH THRESHOLD=  5.00E-03 (SWOFF IN $DFT)
     MEMORY REQUIRED FOR RHF ITERS=    620217 WORDS.

 DIRECT SCF CALCULATION, SCHWRZ=T   FDIFF=T,  DIRTHR=  0.00E+00 NITDIR=10
 SCHWARZ INEQUALITY OVERHEAD:      2344 INTEGRALS, T=        0.00

 DFT CODE IS SWITCHING FROM THE FINE GRID NRAD= 96,  NLEB=  590
                      TO THE COARSE GRID NRAD0= 24, NLEB0=  110

     EXCHANGE FUNCTIONAL   =B88&HFX   
     CORRELATION FUNCTIONAL=LYP88&VWN5
     DFT THRESHOLD         =.883E-08
     GRID CHANGE THRESHOLD =.300E-03
 FOR AN EULER-MACLAURIN QUADRATURE USING  96 RADIAL POINTS:
 SMALLEST GAUSSIAN PRIMITIVE EXPONENT=        0.1612777588 OF TYPE -S-
 ON ATOM NUMBER   5 HAS RADIAL NORMALIZATION=  1.000000
  LARGEST GAUSSIAN PRIMITIVE EXPONENT=     5484.6716600000 OF TYPE -S-
 ON ATOM NUMBER   1 HAS RADIAL NORMALIZATION=  1.000000
 DFT IS SWITCHED OFF, PERFORMING PURE SCF UNTIL SWOFF THRESHOLD IS REACHED.

                                                                                   NONZERO     BLOCKS
 ITER EX DEM     TOTAL ENERGY        E CHANGE  DENSITY CHANGE    DIIS ERROR      INTEGRALS    SKIPPED
          * * *   INITIATING DIIS PROCEDURE   * * *
   1  0  0     -190.2087496268  -190.2087496268   0.282790129   0.409434109        2644310       3479
   2  1  0     -190.6965062702    -0.4877566434   0.141638376   0.111387146        2643786       3779
   3  2  0     -190.7346605815    -0.0381543114   0.068613374   0.067341555        2639488       4266
   4  3  0     -190.7564366820    -0.0217761005   0.011063308   0.008466492        2632924       4684
   5  4  0     -190.7570701131    -0.0006334311   0.006608714   0.002902758        2617816       5382
   6  5  0     -190.7571852217    -0.0001151086   0.002876479   0.001110535        2605838       5871
 CONVERGED TO SWOFF, SO DFT CALCULATION IS NOW SWITCHED ON.
          * * *   INITIATING DIIS PROCEDURE   * * *
   7  6  0     -191.7783757679    -1.0211905463   0.123883320   0.089849988        2644213       3473
   8  7  0     -191.7959612323    -0.0175854643   0.072806568   0.033199924        2640198       4145
   9  8  0     -191.7909745834     0.0049866488   0.056805741   0.050682961        2634085       4563
  10  9  0     -191.8002790604    -0.0093044770   0.009121488   0.007527892        2628080       4871
  11 10  0     -191.8005954732    -0.0003164128   0.000975271   0.000995622        2608778       5664
  12 11  0     -191.8005983765    -0.0000029033   0.000614766   0.000378875        2576900       7046
  13 12  0     -191.8005989600    -0.0000005835   0.000168837   0.000136412        2541575       8240
 DFT CODE IS SWITCHING BACK TO THE FINE GRID
          * * *   INITIATING DIIS PROCEDURE   * * *
  14 13  0     -191.7983049466     0.0022940134   0.003780181   0.001835710        2644449       3430
  15 14  0     -191.7983139889    -0.0000090423   0.000435658   0.000215827        2599941       6332
  16 15  0     -191.7983139738     0.0000000151   0.000271606   0.000252119        2548146       8149
  17 16  0     -191.7983141614    -0.0000001876   0.000132081   0.000107418        2520472       8992
  18 17  0     -191.7983142007    -0.0000000393   0.000031621   0.000024709        2484442       9997
  19 18  0     -191.7983142032    -0.0000000025   0.000013623   0.000007237        2427353      11382
  20 19  0     -191.7983142034    -0.0000000002   0.000004408   0.000003008        2349336      13375

          -----------------
          DENSITY CONVERGED
          -----------------
     TIME TO FORM FOCK OPERATORS=       9.5 SECONDS (       0.5 SEC/ITER)
     FOCK TIME ON FIRST ITERATION=       0.1, LAST ITERATION=       1.1
     TIME TO SOLVE SCF EQUATIONS=       0.1 SECONDS (       0.0 SEC/ITER)

 FINAL R-B3LYP ENERGY IS     -191.7983142034 AFTER  20 ITERATIONS
 DFT EXCHANGE + CORRELATION ENERGY =       -21.1474839556
 TOTAL ELECTRON NUMBER             =        30.0000010277

          ------------
          EIGENVECTORS
          ------------

                      1          2          3          4          5
                  -19.1441   -10.2740   -10.2102   -10.2028    -1.0357
                     A          A          A          A          A   
    1  O  1  S    0.992752  -0.000126   0.000001   0.000049  -0.194739
    2  O  1  S    0.025656   0.000421   0.000004   0.000189   0.425679
    3  O  1  X   -0.000158  -0.000003  -0.000001   0.000006  -0.020965
    4  O  1  Y   -0.001134   0.000050   0.000013  -0.000040  -0.158662
    5  O  1  Z   -0.000158   0.000003   0.000001  -0.000012  -0.022092
    6  O  1  S    0.013988  -0.003071  -0.000162  -0.001597   0.397850
    7  O  1  X   -0.000114   0.000387  -0.000113  -0.000242  -0.004100
    8  O  1  Y   -0.001616   0.001930   0.000018   0.000453  -0.054542
    9  O  1  Z   -0.000226   0.000290  -0.000000   0.000066  -0.007570
   10  O  1 XX   -0.008122   0.000268   0.000005   0.000207  -0.010130
   11  O  1 YY   -0.007619  -0.000283   0.000013   0.000178   0.009771
   12  O  1 ZZ   -0.008138   0.000416  -0.000025   0.000064  -0.005665
   13  O  1 XY    0.000062  -0.000118   0.000011   0.000037   0.002895
   14  O  1 XZ    0.000010  -0.000029   0.000004   0.000020  -0.000054
   15  O  1 YZ    0.000085  -0.000117   0.000006   0.000018   0.002599
   16  C  2  S    0.000007   0.992828  -0.000139  -0.002117  -0.117917
   17  C  2  S    0.000516   0.048716  -0.000192  -0.000344   0.229038
   18  C  2  X    0.000038   0.000189  -0.000082  -0.000202   0.031037
   19  C  2  Y   -0.000019   0.000780  -0.000014   0.000182   0.175336
   20  C  2  Z    0.000001   0.000115  -0.000006   0.000006   0.024783
   21  C  2  S   -0.002958  -0.009008   0.000606   0.005168   0.082874
   22  C  2  X   -0.001093   0.000190   0.000662   0.002394  -0.018160
   23  C  2  Y   -0.003238   0.003647  -0.000071  -0.000366  -0.031715
   24  C  2  Z   -0.000477   0.000454   0.000037   0.000090  -0.005157
   25  C  2 XX   -0.000083  -0.009411   0.000051  -0.000275  -0.016502
   26  C  2 YY   -0.000821  -0.008453  -0.000009  -0.000364   0.021818
   27  C  2 ZZ   -0.000044  -0.009674  -0.000074  -0.000138  -0.018716
   28  C  2 XY   -0.000148   0.000139  -0.000022   0.000222   0.007849
   29  C  2 XZ   -0.000022   0.000039   0.000001   0.000018   0.001257
   30  C  2 YZ   -0.000130   0.000197   0.000005  -0.000006   0.006701
   31  C  3  S   -0.000022   0.001873   0.057029   0.991119  -0.020333
   32  C  3  S   -0.000083   0.000020   0.002383   0.049641   0.036097
   33  C  3  X   -0.000081   0.000269  -0.000400   0.000089  -0.014481
   34  C  3  Y   -0.000024  -0.000182  -0.000129   0.000178   0.024679
   35  C  3  Z   -0.000007  -0.000006  -0.000016   0.000003   0.001857
   36  C  3  S    0.001203   0.002314   0.003236  -0.016014   0.025077
   37  C  3  X    0.001696  -0.003041   0.001938  -0.000953   0.018456
   38  C  3  Y    0.001058  -0.000114   0.000070  -0.002592   0.017744
   39  C  3  Z    0.000161  -0.000105   0.000031  -0.000198   0.002481
   40  C  3 XX    0.000087  -0.000475  -0.000860  -0.009088   0.002302
   41  C  3 YY   -0.000097  -0.000313  -0.000779  -0.009389   0.004175
   42  C  3 ZZ   -0.000049  -0.000127  -0.000672  -0.009608  -0.002530
   43  C  3 XY    0.000014   0.000176  -0.000002   0.000107  -0.004761
   44  C  3 XZ    0.000002   0.000005  -0.000002   0.000020  -0.000356
   45  C  3 YZ   -0.000005  -0.000017  -0.000009   0.000018   0.000562
   46  C  4  S    0.000005  -0.000033   0.991046  -0.057503  -0.007622
   47  C  4  S    0.000034  -0.000204   0.049168  -0.003393   0.014213
   48  C  4  X    0.000048  -0.000033  -0.000075   0.000345  -0.009142
   49  C  4  Y    0.000042  -0.000075  -0.000071   0.000107   0.002254
   50  C  4  Z    0.000009  -0.000003  -0.000014   0.000012   0.000107
   51  C  4  S   -0.001603   0.001933  -0.012626   0.006540  -0.012335
   52  C  4  X    0.000944  -0.001143   0.000832  -0.002443   0.005301
   53  C  4  Y    0.000225  -0.000104   0.000393   0.000024   0.002522
   54  C  4  Z    0.000003  -0.000023   0.000046  -0.000035   0.000054
   55  C  4 XX   -0.000058   0.000128  -0.009221   0.000230   0.000982
   56  C  4 YY    0.000012   0.000015  -0.009459   0.000309   0.000028
   57  C  4 ZZ    0.000022  -0.000091  -0.009783   0.000456  -0.000939
   58  C  4 XY   -0.000058   0.000057   0.000079  -0.000082  -0.000703
   59  C  4 XZ   -0.000001   0.000007   0.000016  -0.000011  -0.000021
   60  C  4 YZ   -0.000001   0.000007   0.000026  -0.000013   0.000099
   61  H  5  S   -0.000062  -0.000230   0.000016  -0.000043   0.027862
   62  H  5  S   -0.000641   0.002525   0.000348   0.000346  -0.016816
   63  H  6  S    0.000136  -0.000227  -0.000102  -0.000410   0.006254
   64  H  6  S    0.000393  -0.000549  -0.000018   0.001467   0.006509
   65  H  7  S    0.000117  -0.000107  -0.000330  -0.000124   0.004722
   66  H  7  S   -0.000270   0.000065   0.002072  -0.000526   0.003123
   67  H  8  S    0.000014  -0.000024  -0.000336  -0.000027   0.001750
   68  H  8  S   -0.000121   0.000303   0.002189   0.000020   0.000855

                      6          7          8          9         10
                   -0.7893    -0.6561    -0.5435    -0.5056    -0.4432
                     A          A          A          A          A   
    1  O  1  S    0.043902   0.057761   0.055015   0.022115  -0.070015
    2  O  1  S   -0.098625  -0.134572  -0.124741  -0.049701   0.136951
    3  O  1  X    0.021038  -0.012372  -0.085059   0.161567   0.120810
    4  O  1  Y    0.002613  -0.047556  -0.103430  -0.079096   0.352412
    5  O  1  Z    0.001574  -0.006076  -0.021549  -0.002520   0.058330
    6  O  1  S   -0.111521  -0.142701  -0.176073  -0.083679   0.333316
    7  O  1  X    0.007253  -0.007780  -0.040159   0.088411   0.067082
    8  O  1  Y   -0.001140  -0.034638  -0.055183  -0.041101   0.168827
    9  O  1  Z    0.000278  -0.004541  -0.011229  -0.001102   0.028711
   10  O  1 XX    0.001312  -0.000686   0.002350  -0.002080  -0.005492
   11  O  1 YY    0.002379   0.007548   0.009574   0.008585  -0.026690
   12  O  1 ZZ    0.000087  -0.001353  -0.000750  -0.001183  -0.003226
   13  O  1 XY   -0.002077   0.001873   0.008370  -0.012755  -0.008355
   14  O  1 XZ   -0.000183   0.000364   0.001376  -0.001764  -0.001449
   15  O  1 YZ    0.000214   0.001398   0.002403   0.000875  -0.004560
   16  C  2  S   -0.046523  -0.119869  -0.091370  -0.013151   0.031557
   17  C  2  S    0.092939   0.252452   0.197614   0.033055  -0.079723
   18  C  2  X    0.062133  -0.017138  -0.185137   0.282516   0.050695
   19  C  2  Y   -0.118553  -0.181975  -0.036595  -0.014589  -0.264610
   20  C  2  Z   -0.011412  -0.022912  -0.021376   0.013307  -0.023915
   21  C  2  S    0.076708   0.205948   0.196685   0.021427  -0.075153
   22  C  2  X    0.019956  -0.020631  -0.064514   0.090150   0.010649
   23  C  2  Y   -0.013459  -0.068983  -0.040587   0.001779  -0.061380
   24  C  2  Z   -0.000909  -0.009675  -0.010949   0.003941  -0.003784
   25  C  2 XX    0.010072   0.006645   0.005589   0.001417   0.004118
   26  C  2 YY   -0.005374  -0.009149  -0.012572  -0.007289   0.001503
   27  C  2 ZZ   -0.003929  -0.008883  -0.006695  -0.000814   0.005673
   28  C  2 XY   -0.008459  -0.002677   0.008803  -0.002349  -0.001840
   29  C  2 XZ   -0.000078   0.001180   0.002029  -0.000549  -0.000045
   30  C  2 YZ   -0.000829  -0.000330  -0.000146  -0.001120  -0.000901
   31  C  3  S   -0.164062  -0.053341   0.096462   0.002443   0.004957
   32  C  3  S    0.321183   0.107700  -0.198437  -0.001061  -0.012644
   33  C  3  X    0.064210  -0.221986  -0.039291  -0.029776  -0.273230
   34  C  3  Y    0.037856   0.012696   0.123504   0.303069  -0.057790
   35  C  3  Z    0.002803  -0.004658   0.004737   0.022133  -0.009435
   36  C  3  S    0.217174   0.092446  -0.188233  -0.009094   0.010707
   37  C  3  X   -0.007127  -0.051439   0.018028  -0.005794  -0.114134
   38  C  3  Y   -0.017803   0.001495   0.055187   0.094535  -0.009134
   39  C  3  Z   -0.001974  -0.001019   0.003301   0.007424  -0.003064
   40  C  3 XX    0.005158  -0.002844   0.012076  -0.003000  -0.003584
   41  C  3 YY   -0.000819   0.006088  -0.007135  -0.002995   0.008251
   42  C  3 ZZ   -0.015784  -0.004834   0.007279   0.000752  -0.000087
   43  C  3 XY    0.003823  -0.009748  -0.006326  -0.003788   0.000424
   44  C  3 XZ    0.000719  -0.000440  -0.000085  -0.000478   0.000100
   45  C  3 YZ    0.001123   0.000554  -0.001540  -0.000402   0.000707
   46  C  4  S   -0.143190   0.126205  -0.067259   0.006214   0.005338
   47  C  4  S    0.277742  -0.251950   0.138458  -0.014316  -0.014471
   48  C  4  X   -0.097972  -0.046981   0.199338  -0.120168   0.229119
   49  C  4  Y   -0.028024   0.005934   0.107296   0.227424   0.180117
   50  C  4  Z   -0.003864  -0.000672   0.009346   0.013838   0.015730
   51  C  4  S    0.221517  -0.223927   0.142257  -0.015031   0.017758
   52  C  4  X   -0.009528  -0.025992   0.083424  -0.042755   0.060330
   53  C  4  Y   -0.000047  -0.000348   0.037788   0.093470   0.059191
   54  C  4  Z   -0.000329  -0.000543   0.002946   0.005662   0.005416
   55  C  4 XX    0.007975   0.002561  -0.006267   0.000280  -0.004926
   56  C  4 YY   -0.000005  -0.006873   0.010895  -0.001115   0.013648
   57  C  4 ZZ   -0.014755   0.011757  -0.005529   0.000164  -0.000120
   58  C  4 XY    0.002638   0.002661  -0.008447   0.002782  -0.000980
   59  C  4 XZ    0.000688   0.000046  -0.000459   0.000116  -0.000219
   60  C  4 YZ    0.001148  -0.001373   0.001049  -0.000105   0.001065
   61  H  5  S    0.026773   0.124696   0.170896  -0.114311  -0.000448
   62  H  5  S    0.009305   0.039445   0.088341  -0.081616   0.011461
   63  H  6  S    0.084614   0.060717  -0.143037  -0.155257   0.074881
   64  H  6  S    0.006430   0.023926  -0.068381  -0.111528   0.066362
   65  H  7  S    0.070578  -0.098696   0.135357   0.091582   0.137918
   66  H  7  S    0.005933  -0.034048   0.060103   0.050160   0.126841
   67  H  8  S    0.072037  -0.112212   0.102693  -0.133589   0.026731
   68  H  8  S    0.011588  -0.038948   0.050276  -0.083916   0.028014

                     11         12         13         14         15
                   -0.4213    -0.3911    -0.3828    -0.2826    -0.2539
                     A          A          A          A          A   
    1  O  1  S    0.037317  -0.000068   0.026952   0.000483   0.001203
    2  O  1  S   -0.081814   0.000425  -0.052674  -0.001682  -0.008499
    3  O  1  X    0.129227  -0.049858  -0.129142   0.031386   0.571695
    4  O  1  Y   -0.290285  -0.047402  -0.206012   0.040476  -0.092061
    5  O  1  Z    0.002898   0.434193  -0.060085  -0.274990   0.039033
    6  O  1  S   -0.129576  -0.002347  -0.126511  -0.002215   0.020949
    7  O  1  X    0.074406  -0.029397  -0.072194   0.023047   0.404408
    8  O  1  Y   -0.168769  -0.028271  -0.111748   0.028315  -0.070041
    9  O  1  Z    0.001561   0.265913  -0.035142  -0.193864   0.026955
   10  O  1 XX   -0.005801   0.001118   0.002534  -0.000261  -0.004710
   11  O  1 YY    0.020212   0.005795   0.010321  -0.003208   0.003089
   12  O  1 ZZ   -0.003004  -0.006759   0.000433   0.003098  -0.002509
   13  O  1 XY   -0.009286   0.003713   0.007719  -0.001727  -0.017655
   14  O  1 XZ   -0.001635  -0.002797   0.001327   0.003067  -0.002710
   15  O  1 YZ    0.000606  -0.028383   0.003679   0.012505  -0.000838
   16  C  2  S   -0.026755   0.002067   0.018085  -0.000247  -0.000292
   17  C  2  S    0.070235  -0.004810  -0.033533   0.000296  -0.013162
   18  C  2  X    0.260197  -0.050978  -0.082739  -0.005196  -0.137380
   19  C  2  Y    0.113765  -0.041748   0.216398   0.002865   0.024953
   20  C  2  Z    0.064411   0.354625   0.006130  -0.041461  -0.006728
   21  C  2  S    0.034716  -0.007312  -0.098078   0.002380   0.044507
   22  C  2  X    0.068377  -0.024824  -0.050242   0.001925   0.060449
   23  C  2  Y   -0.042408  -0.018644   0.054787   0.006578  -0.058983
   24  C  2  Z    0.016963   0.203435  -0.005694  -0.034104  -0.002008
   25  C  2 XX   -0.019462   0.000480  -0.012008   0.000952   0.016089
   26  C  2 YY    0.005506  -0.004723   0.011528   0.003764  -0.013214
   27  C  2 ZZ   -0.003097   0.005229  -0.002218  -0.004203  -0.000859
   28  C  2 XY    0.000575  -0.002402  -0.001094   0.001914   0.046200
   29  C  2 XZ   -0.000100   0.007489  -0.001256   0.008663   0.007154
   30  C  2 YZ    0.002175   0.018138   0.000415  -0.023151   0.002437
   31  C  3  S    0.013360  -0.001207  -0.008762   0.000894   0.038597
   32  C  3  S   -0.031899   0.001966   0.010458  -0.000673  -0.075524
   33  C  3  X   -0.233195   0.017246  -0.027240  -0.001812   0.160389
   34  C  3  Y   -0.089526  -0.012182  -0.250558  -0.028765  -0.151379
   35  C  3  Z    0.008366   0.170887  -0.024341   0.369311  -0.018168
   36  C  3  S    0.005591   0.007596   0.069534  -0.012135  -0.327118
   37  C  3  X   -0.012927   0.002161   0.003545  -0.008029   0.103893
   38  C  3  Y   -0.003155  -0.004671  -0.067499  -0.023666  -0.119752
   39  C  3  Z    0.010761   0.091214  -0.007716   0.262685  -0.014046
   40  C  3 XX   -0.004824   0.000828  -0.012820  -0.000194   0.000502
   41  C  3 YY    0.012605  -0.002177   0.019133  -0.000206   0.003367
   42  C  3 ZZ   -0.000011   0.000751  -0.001613   0.000772   0.001831
   43  C  3 XY   -0.010923   0.001907   0.018580  -0.000829   0.006202
   44  C  3 XZ   -0.001469  -0.003147   0.000981   0.014228   0.000306
   45  C  3 YZ    0.001923   0.008161   0.001775   0.003549   0.000569
   46  C  4  S    0.017171  -0.003075   0.004294  -0.000079  -0.002678
   47  C  4  S   -0.037803   0.007125  -0.008072   0.000140   0.000213
   48  C  4  X    0.305853  -0.030183  -0.007711  -0.008871  -0.056163
   49  C  4  Y   -0.112248   0.020623   0.323711  -0.026022  -0.020338
   50  C  4  Z    0.006798   0.095363   0.016541   0.371978  -0.011731
   51  C  4  S   -0.082997   0.009368  -0.020993   0.005037   0.020062
   52  C  4  X    0.126733  -0.007083   0.025486  -0.011527  -0.105855
   53  C  4  Y   -0.029893   0.005273   0.129208  -0.018814  -0.005189
   54  C  4  Z    0.004818   0.060017   0.005062   0.254349  -0.006465
   55  C  4 XX    0.001784  -0.000836  -0.013445   0.000495  -0.004068
   56  C  4 YY    0.006599   0.000249   0.015711   0.000729   0.002972
   57  C  4 ZZ    0.000550  -0.000347   0.000757  -0.001182  -0.001173
   58  C  4 XY   -0.014486   0.002885   0.021096   0.001129   0.004747
   59  C  4 XZ   -0.001680  -0.006752   0.001456  -0.014336   0.000525
   60  C  4 YZ    0.000204  -0.000632   0.001448  -0.005223   0.000811
   61  H  5  S   -0.144618   0.010893  -0.031232   0.009893   0.174048
   62  H  5  S   -0.147605   0.011416  -0.029662   0.013199   0.270718
   63  H  6  S    0.079254  -0.002006   0.195969   0.000816   0.046720
   64  H  6  S    0.086644  -0.002098   0.194263   0.000595   0.084486
   65  H  7  S   -0.031708   0.014590   0.208925  -0.000194   0.005292
   66  H  7  S   -0.024415   0.007946   0.168312   0.004015   0.075534
   67  H  8  S    0.177258  -0.023633  -0.164870  -0.000752  -0.030959
   68  H  8  S    0.158326  -0.024830  -0.160062   0.000550  -0.011995

                     16         17         18         19         20
                   -0.0649     0.0683     0.1052     0.1321     0.1645
                     A          A          A          A          A   
    1  O  1  S   -0.000768   0.002636   0.004898  -0.025215  -0.000208
    2  O  1  S    0.000082  -0.003825  -0.017589   0.059496   0.040990
    3  O  1  X   -0.026572  -0.022610  -0.076994   0.030144  -0.055228
    4  O  1  Y   -0.046063  -0.023295   0.015142  -0.055423  -0.083769
    5  O  1  Z    0.330451   0.263366  -0.015697  -0.006211  -0.013184
    6  O  1  S    0.013087  -0.034786  -0.032158   0.253883  -0.218555
    7  O  1  X   -0.025904  -0.025739  -0.115152  -0.049246  -0.108032
    8  O  1  Y   -0.048089  -0.021263   0.017042  -0.146801  -0.000884
    9  O  1  Z    0.325411   0.308975  -0.023845  -0.019359  -0.004275
   10  O  1 XX   -0.000633   0.000895   0.003257  -0.008976   0.017456
   11  O  1 YY    0.000068  -0.000832  -0.002504   0.009250   0.002754
   12  O  1 ZZ   -0.001300   0.002803  -0.003972  -0.003480   0.008015
   13  O  1 XY    0.000185  -0.001191  -0.002817  -0.001378  -0.002293
   14  O  1 XZ    0.000272   0.003182  -0.000127   0.000439   0.000361
   15  O  1 YZ   -0.002157   0.005263  -0.000109   0.002256  -0.001376
   16  C  2  S    0.000444   0.000416   0.056283   0.053140   0.098489
   17  C  2  S   -0.000040  -0.003185  -0.098965  -0.069501  -0.151270
   18  C  2  X    0.026263   0.035743   0.146906   0.096716   0.195346
   19  C  2  Y    0.043726   0.057790   0.098096   0.047332   0.132577
   20  C  2  Z   -0.340844  -0.402005   0.044031   0.003197   0.033223
   21  C  2  S   -0.010023   0.011900  -0.794409  -1.004295  -1.398067
   22  C  2  X    0.022770   0.049422   0.296114   0.243442   0.584233
   23  C  2  Y    0.031883   0.098506   0.220253   0.033912   0.674696
   24  C  2  Z   -0.322962  -0.543222   0.090681   0.010089   0.117745
   25  C  2 XX   -0.000827   0.000162   0.018045  -0.002613   0.002898
   26  C  2 YY   -0.005504  -0.003960  -0.006876   0.007073   0.023072
   27  C  2 ZZ    0.006335   0.003970   0.000401  -0.000566  -0.001727
   28  C  2 XY   -0.002322  -0.003068  -0.001763   0.004177  -0.006378
   29  C  2 XZ   -0.000824   0.019744  -0.000853   0.001317   0.000510
   30  C  2 YZ    0.029810   0.003209  -0.001333   0.000925   0.003607
   31  C  3  S   -0.000498   0.001064   0.042512   0.005549  -0.092932
   32  C  3  S   -0.001479  -0.004196  -0.059346   0.001398   0.152088
   33  C  3  X    0.001162  -0.006218   0.018011  -0.078512  -0.082723
   34  C  3  Y    0.012637  -0.019928   0.277132   0.030151  -0.100981
   35  C  3  Z   -0.196650   0.415482   0.001922   0.008359  -0.006526
   36  C  3  S    0.019285  -0.000272  -0.776148  -0.106358   1.392335
   37  C  3  X    0.020764   0.012433  -0.007271  -0.438903  -0.502357
   38  C  3  Y    0.025836  -0.022337   0.593963   0.080490  -0.496516
   39  C  3  Z   -0.264104   0.644356   0.002548   0.004212  -0.061711
   40  C  3 XX   -0.002569  -0.003201  -0.014408   0.003641  -0.011237
   41  C  3 YY    0.001599   0.004967   0.018495  -0.002429  -0.001638
   42  C  3 ZZ    0.000506  -0.002267   0.003062   0.003075  -0.000913
   43  C  3 XY   -0.002078   0.000239   0.013729   0.011779  -0.002037
   44  C  3 XZ    0.030504   0.000650   0.000144   0.001121  -0.000213
   45  C  3 YZ   -0.003235  -0.019586   0.002919  -0.000098   0.000857
   46  C  4  S    0.001407   0.004606   0.034178  -0.121094   0.057645
   47  C  4  S   -0.002409  -0.009366  -0.058463   0.186866  -0.101533
   48  C  4  X   -0.000889   0.006925  -0.123691   0.188552   0.014868
   49  C  4  Y   -0.020787   0.024160   0.164133   0.072323  -0.100775
   50  C  4  Z    0.359707  -0.254374   0.017795   0.003070  -0.007890
   51  C  4  S   -0.023852  -0.060691  -0.449998   2.013581  -0.488142
   52  C  4  X    0.008078   0.011926  -0.362492   0.430249   0.024051
   53  C  4  Y   -0.022615   0.047961   0.288545   0.149019  -0.194685
   54  C  4  Z    0.444949  -0.458496   0.032846   0.011689  -0.007207
   55  C  4 XX   -0.000275   0.001261   0.010762   0.002037   0.009682
   56  C  4 YY    0.000074   0.001275  -0.004628  -0.015388   0.000868
   57  C  4 ZZ    0.000493  -0.001813   0.000451  -0.005519   0.002522
   58  C  4 XY   -0.000879   0.000763  -0.021354  -0.003385   0.004568
   59  C  4 XZ    0.010284  -0.024727  -0.000244  -0.000719   0.000101
   60  C  4 YZ    0.000998  -0.010964  -0.000101  -0.000932   0.000167
   61  H  5  S   -0.002866   0.006826   0.048435   0.032439   0.060962
   62  H  5  S   -0.003571   0.034337   0.935372   0.752921   1.607199
   63  H  6  S    0.005575   0.009632   0.072479   0.017787  -0.068987
   64  H  6  S    0.012077   0.055987   1.250675   0.063743  -1.369969
   65  H  7  S    0.000592  -0.001203  -0.041636  -0.097499   0.033945
   66  H  7  S   -0.005772  -0.004096  -0.240020  -1.326348   0.631997
   67  H  8  S    0.001245   0.004596   0.080866  -0.039367   0.022331
   68  H  8  S    0.003034   0.045425   0.990660  -1.172162   0.098474

                     21         22         23         24         25
                    0.1909     0.2619     0.3235     0.3334     0.5149
                     A          A          A          A          A   
    1  O  1  S   -0.012319  -0.103883   0.049030   0.004071   0.007986
    2  O  1  S    0.041617   0.087558  -0.033076   0.012516  -0.035692
    3  O  1  X    0.112505  -0.093490  -0.050497  -0.127778   0.001829
    4  O  1  Y   -0.037028  -0.191277  -0.015143   0.086438   0.015509
    5  O  1  Z    0.000565  -0.022205   0.004882  -0.002435  -0.062462
    6  O  1  S    0.078030   2.020524  -1.200820  -0.084003  -0.115416
    7  O  1  X    0.145953  -0.186568   0.004056  -0.376638   0.003173
    8  O  1  Y   -0.082316  -0.828707   0.439235   0.154421   0.076068
    9  O  1  Z    0.001523  -0.112498   0.068661  -0.008936  -0.044052
   10  O  1 XX    0.002666  -0.061930   0.040087  -0.007147  -0.009728
   11  O  1 YY    0.005331  -0.011850  -0.020202   0.015555  -0.015676
   12  O  1 ZZ    0.002253  -0.066323   0.033518   0.014967   0.009503
   13  O  1 XY    0.003834   0.013635  -0.002354  -0.010632  -0.008532
   14  O  1 XZ    0.001096   0.001931  -0.000636  -0.003038   0.011211
   15  O  1 YZ    0.000852   0.009791  -0.008357  -0.001073   0.037542
   16  C  2  S    0.022171   0.040522  -0.006341  -0.083354  -0.016390
   17  C  2  S   -0.062630   0.002753  -0.116061   0.105535   0.002631
   18  C  2  X   -0.253415  -0.053818  -0.027542   0.428624   0.112748
   19  C  2  Y    0.057117  -0.169430   0.033168  -0.186591   0.075668
   20  C  2  Z   -0.011826  -0.036849   0.003612   0.016346  -0.646494
   21  C  2  S    0.075947  -1.352240   0.716947   2.054524   0.025713
   22  C  2  X   -0.349976  -0.063103   0.694423   1.735230  -0.042536
   23  C  2  Y   -0.011149  -1.921950   1.266174  -0.911356   0.091072
   24  C  2  Z   -0.035562  -0.273110   0.166368   0.011652   0.702045
   25  C  2 XX    0.009522  -0.019350  -0.022752  -0.010609  -0.026164
   26  C  2 YY    0.004912   0.023743   0.032854  -0.010569  -0.004159
   27  C  2 ZZ   -0.007087  -0.016448  -0.002060   0.010989   0.012016
   28  C  2 XY   -0.001443   0.009798   0.001700   0.016485   0.016063
   29  C  2 XZ    0.001479   0.001964  -0.002229   0.000269  -0.017033
   30  C  2 YZ    0.001436   0.005920   0.004480  -0.001943  -0.001472
   31  C  3  S   -0.069086   0.030309   0.081726   0.075617   0.018013
   32  C  3  S    0.113215   0.028295  -0.095205  -0.093383  -0.011476
   33  C  3  X   -0.085469  -0.024972  -0.252376   0.182720   0.172205
   34  C  3  Y   -0.099632   0.017605  -0.156920  -0.277385  -0.053139
   35  C  3  Z   -0.007891   0.022116  -0.015846  -0.012227  -0.477629
   36  C  3  S    1.107652  -1.429122  -3.105429  -1.462520  -0.037495
   37  C  3  X   -0.090610  -0.258395  -2.607342   1.595359  -0.442267
   38  C  3  Y   -0.708502  -0.011142  -1.436235  -1.923798  -0.039386
   39  C  3  Z   -0.040726   0.045634  -0.162683  -0.114060   0.244883
   40  C  3 XX   -0.011958   0.041895  -0.018862  -0.003908   0.020001
   41  C  3 YY    0.002794  -0.022247  -0.003825   0.022555   0.004704
   42  C  3 ZZ    0.000794  -0.000927   0.010980  -0.005921  -0.015636
   43  C  3 XY    0.032238   0.011271   0.007618  -0.037494   0.007243
   44  C  3 XZ    0.002026   0.003697  -0.000210  -0.002852  -0.020221
   45  C  3 YZ    0.000495  -0.002491  -0.001440   0.002172  -0.027042
   46  C  4  S    0.008801  -0.014612  -0.075548  -0.001125  -0.001421
   47  C  4  S   -0.006669   0.054760  -0.028951  -0.011323   0.074468
   48  C  4  X   -0.096472  -0.226775  -0.011227   0.041362  -0.134010
   49  C  4  Y    0.346825  -0.049443  -0.022203   0.206048  -0.025400
   50  C  4  Z    0.019072  -0.013063   0.001072   0.018471  -0.563862
   51  C  4  S   -0.129592   0.220585   3.341848  -0.214230   0.215185
   52  C  4  X   -0.317680  -0.719057  -2.876607  -0.164903   0.071277
   53  C  4  Y    1.425977  -0.243539  -0.613314   1.035041   0.056475
   54  C  4  Z    0.086473  -0.049957  -0.084978   0.067362   0.533298
   55  C  4 XX    0.008246  -0.012602  -0.020400  -0.027805   0.011559
   56  C  4 YY   -0.009890   0.010992   0.027613   0.034405  -0.001897
   57  C  4 ZZ    0.002922  -0.000813  -0.011841  -0.003908   0.002081
   58  C  4 XY   -0.002537   0.007967  -0.031968   0.031470   0.006203
   59  C  4 XZ   -0.000095  -0.001372  -0.002015   0.001718   0.030392
   60  C  4 YZ   -0.001151  -0.000136   0.002566   0.003267   0.017182
   61  H  5  S    0.027973   0.025821  -0.093302   0.012328  -0.078798
   62  H  5  S   -0.469761  -0.204704   0.396534   0.736899   0.059842
   63  H  6  S    0.018758  -0.105796   0.008556  -0.003499   0.029906
   64  H  6  S   -1.161367   0.147830  -0.954365  -0.855913  -0.086913
   65  H  7  S   -0.054327   0.067549   0.057322   0.130343  -0.019690
   66  H  7  S   -1.420932   0.459714   0.182973  -0.972860  -0.060915
   67  H  8  S    0.048707  -0.007206   0.118971  -0.122324   0.005528
   68  H  8  S    1.509184   0.393764   0.448585   0.673195   0.040743

                     26         27         28         29         30
                    0.5167     0.5814     0.5836     0.5998     0.6469
                     A          A          A          A          A   
    1  O  1  S   -0.026503   0.002123   0.000244   0.015787  -0.004018
    2  O  1  S    0.109412   0.050892  -0.086361  -0.032000   0.013357
    3  O  1  X   -0.007694   0.156255  -0.228397   0.140934  -0.019177
    4  O  1  Y   -0.035768  -0.056817   0.111736  -0.039807  -0.035139
    5  O  1  Z   -0.029396  -0.031546  -0.028437   0.006393   0.079265
    6  O  1  S    0.380468  -0.267011   0.400609  -0.275843   0.016455
    7  O  1  X    0.016773   0.092295  -0.145333   0.017747  -0.005172
    8  O  1  Y   -0.224111   0.062047  -0.028920   0.204767  -0.038774
    9  O  1  Z   -0.044457  -0.091331  -0.076874   0.049538   0.049529
   10  O  1 XX    0.027423   0.013726  -0.022127  -0.004100   0.003445
   11  O  1 YY    0.009823  -0.010198   0.002509  -0.003278  -0.005262
   12  O  1 ZZ    0.001596   0.030380  -0.023231   0.021342   0.000648
   13  O  1 XY    0.006712  -0.008796   0.015677   0.015356  -0.006175
   14  O  1 XZ    0.006642  -0.007033  -0.001478   0.002233   0.008139
   15  O  1 YZ    0.012519   0.039036   0.031576  -0.008916  -0.023934
   16  C  2  S    0.056840   0.010488  -0.020053  -0.013664   0.005520
   17  C  2  S    0.013837   0.091413  -0.280149  -0.447151  -0.042720
   18  C  2  X   -0.169522   0.252846  -0.370467  -0.067319  -0.009133
   19  C  2  Y    0.006196  -0.049456   0.361249   0.239056  -0.101418
   20  C  2  Z   -0.186004  -0.605553  -0.337703   0.108281   0.251567
   21  C  2  S   -0.157365  -0.265949   0.709307   0.822401   0.000647
   22  C  2  X   -0.085373  -0.749315   1.155096  -0.175081   0.019095
   23  C  2  Y   -0.551267   0.427598  -1.062918   0.017794   0.098946
   24  C  2  Z    0.130603   0.856186   0.461459  -0.144660  -0.702220
   25  C  2 XX    0.091371  -0.008236  -0.000927  -0.121576  -0.005145
   26  C  2 YY    0.028183   0.041307  -0.078349  -0.013774   0.006698
   27  C  2 ZZ   -0.049251  -0.006043   0.004809   0.030909  -0.003036
   28  C  2 XY   -0.047471  -0.013259   0.027091  -0.013953   0.004190
   29  C  2 XZ    0.000948  -0.028735  -0.016352  -0.006668  -0.010835
   30  C  2 YZ    0.010243  -0.003257  -0.013737  -0.007222   0.020040
   31  C  3  S   -0.057079   0.007562  -0.029047  -0.037415   0.004843
   32  C  3  S    0.049382   0.088220  -0.261388  -0.525297  -0.045612
   33  C  3  X   -0.545440  -0.133346   0.220227   0.024083  -0.015436
   34  C  3  Y    0.286201   0.080365  -0.131037   0.080049   0.045514
   35  C  3  Z   -0.139896   0.103518   0.040302   0.002187  -0.932546
   36  C  3  S    0.083785   0.275626  -0.293537   1.021308   0.073155
   37  C  3  X    1.398631  -0.249267   0.512941  -0.147321   0.013888
   38  C  3  Y    0.079325   0.217599  -0.366155  -0.178110  -0.099868
   39  C  3  Z    0.118944  -0.175640  -0.122267   0.007567   1.539939
   40  C  3 XX   -0.059541   0.057197  -0.125112  -0.041692   0.006440
   41  C  3 YY   -0.000751  -0.006510  -0.025306  -0.161629  -0.000654
   42  C  3 ZZ    0.035332  -0.011524   0.042698   0.053568  -0.006864
   43  C  3 XY   -0.023116  -0.026360   0.036812  -0.006984   0.001676
   44  C  3 XZ   -0.010786   0.042440   0.021352  -0.007971   0.013903
   45  C  3 YZ   -0.011344   0.005307  -0.000820  -0.020076  -0.028075
   46  C  4  S    0.002845  -0.011311   0.019615  -0.014137  -0.007630
   47  C  4  S   -0.222856   0.140421  -0.339978  -0.364403  -0.045005
   48  C  4  X    0.457899  -0.153039   0.280849  -0.037747  -0.038827
   49  C  4  Y    0.238460   0.075620  -0.165196   0.222478  -0.054950
   50  C  4  Z   -0.165171   0.662629   0.349140  -0.078733   0.465621
   51  C  4  S   -0.715007  -0.074137   0.169982   0.579493   0.103744
   52  C  4  X   -0.340739   0.052605  -0.033459   0.450935   0.086211
   53  C  4  Y   -0.385094  -0.375876   0.633555  -0.423770   0.133364
   54  C  4  Z    0.146300  -0.721803  -0.332402   0.080322  -0.905091
   55  C  4 XX   -0.047178  -0.026275   0.034989  -0.058358  -0.013669
   56  C  4 YY    0.008678   0.027972  -0.057661  -0.054044  -0.013157
   57  C  4 ZZ    0.002734   0.007073  -0.007970   0.034830   0.008280
   58  C  4 XY   -0.018823   0.028716  -0.029792   0.062518  -0.004747
   59  C  4 XZ    0.007321  -0.024376  -0.014574   0.005780   0.026985
   60  C  4 YZ    0.005406   0.007421  -0.000426  -0.007499  -0.010185
   61  H  5  S    0.267126  -0.113437   0.122912  -0.400147   0.022144
   62  H  5  S   -0.173268  -0.115433   0.181416  -0.047807  -0.014426
   63  H  6  S   -0.127871  -0.080693  -0.012417  -0.565417   0.010176
   64  H  6  S    0.282603   0.146237  -0.238108   0.006450   0.001397
   65  H  7  S    0.117088   0.150820  -0.240582  -0.047275  -0.062518
   66  H  7  S    0.234753   0.152369  -0.239342  -0.017910  -0.042752
   67  H  8  S   -0.039761  -0.113912   0.116208  -0.413197  -0.042407
   68  H  8  S   -0.085996  -0.008547  -0.008813  -0.198384  -0.004546

                     31         32         33         34         35
                    0.6551     0.6985     0.8035     0.8392     0.8481
                     A          A          A          A          A   
    1  O  1  S   -0.025065   0.035013   0.018397   0.001259   0.007011
    2  O  1  S    0.044155  -0.133071  -0.106317   0.128287  -0.393465
    3  O  1  X   -0.111241   0.024099  -0.023876   0.068463  -0.143497
    4  O  1  Y   -0.183187   0.336755  -0.266490   0.239449  -0.481654
    5  O  1  Z   -0.044867   0.048467  -0.035083   0.033986  -0.059240
    6  O  1  S    0.020500   0.282658  -0.727502  -0.222203   0.296691
    7  O  1  X    0.019393   0.050716  -0.267351  -0.079670   0.212076
    8  O  1  Y   -0.178902   0.177317   0.732782  -0.346101   0.919617
    9  O  1  Z   -0.030814   0.025035   0.079912  -0.046042   0.122194
   10  O  1 XX    0.027413  -0.048924  -0.043245   0.061134  -0.139691
   11  O  1 YY   -0.097843   0.141654  -0.123415   0.072419  -0.187498
   12  O  1 ZZ    0.009390  -0.062624   0.009508   0.049162  -0.137619
   13  O  1 XY   -0.039635   0.033263   0.075099   0.022035  -0.045345
   14  O  1 XZ   -0.006052   0.005898   0.007482   0.003864  -0.007015
   15  O  1 YZ   -0.014708   0.033825  -0.014279   0.006942  -0.010221
   16  C  2  S    0.035619  -0.039695  -0.005138  -0.011522   0.052151
   17  C  2  S   -0.138626   0.618891   0.250293  -0.090261  -0.154218
   18  C  2  X    0.001478   0.118855  -0.702227  -0.147955   0.329397
   19  C  2  Y   -0.540805   0.749191  -0.041892  -0.017501   0.307608
   20  C  2  Z   -0.118466   0.101641  -0.059641  -0.011557   0.063866
   21  C  2  S   -0.218262  -0.400608   1.341676   0.657053   1.298821
   22  C  2  X   -0.028861  -0.085208   3.148590   0.508488  -0.324558
   23  C  2  Y    0.430595  -0.724900   0.446334  -0.153951  -0.086144
   24  C  2  Z    0.174797  -0.099748   0.262434   0.011522  -0.039717
   25  C  2 XX   -0.014098   0.092188  -0.047051   0.030395   0.044531
   26  C  2 YY    0.089349  -0.083257   0.164486  -0.070949   0.147302
   27  C  2 ZZ   -0.043160   0.039219   0.008760   0.010125  -0.100724
   28  C  2 XY    0.029611  -0.053236  -0.059703  -0.071947   0.073900
   29  C  2 XZ    0.005706  -0.001612  -0.008912  -0.009913   0.021886
   30  C  2 YZ    0.018366  -0.024563   0.017638  -0.019533   0.042301
   31  C  3  S    0.045303   0.036078   0.038807   0.008899  -0.001281
   32  C  3  S   -0.347272  -0.026522   0.305226   0.057657   0.176681
   33  C  3  X   -0.359798  -0.488619  -0.072649  -0.150093   0.085068
   34  C  3  Y   -0.185783  -0.042549   0.618807   0.284538   0.194609
   35  C  3  Z    0.094038  -0.029723   0.033308   0.015632   0.021893
   36  C  3  S    0.611175  -0.372229  -1.590894  -0.248178  -0.560244
   37  C  3  X    0.435295   0.337790   0.346992   0.527791  -0.272845
   38  C  3  Y    0.183669   0.214832  -2.823615  -1.532956  -0.864961
   39  C  3  Z   -0.175878   0.052134  -0.204554  -0.096687  -0.070661
   40  C  3 XX    0.068052   0.042575   0.037730   0.052866   0.002283
   41  C  3 YY   -0.013099   0.041407   0.013004  -0.041775  -0.023566
   42  C  3 ZZ   -0.042876  -0.031778  -0.023089  -0.001179   0.010776
   43  C  3 XY    0.020363   0.055678   0.058602  -0.051863  -0.016494
   44  C  3 XZ    0.004802   0.001925   0.006731  -0.003361  -0.002468
   45  C  3 YZ    0.006629   0.008712   0.004525  -0.003756  -0.002538
   46  C  4  S   -0.071037  -0.057719   0.008924   0.002193  -0.012864
   47  C  4  S   -0.353988  -0.026421   0.174372  -0.011115   0.290534
   48  C  4  X   -0.289851  -0.398645  -0.211873   0.158692   0.265221
   49  C  4  Y   -0.202435  -0.049402   0.072971  -0.990631  -0.288785
   50  C  4  Z   -0.055876  -0.006004   0.010968  -0.064147  -0.013655
   51  C  4  S    0.791865   0.394211   0.566800   0.129995  -0.058816
   52  C  4  X    0.590366   0.319953   0.226018  -0.551977  -0.740155
   53  C  4  Y    0.554744  -0.229449   0.379911   2.511752   0.908250
   54  C  4  Z    0.135330  -0.019532   0.019865   0.159697   0.050337
   55  C  4 XX   -0.123886  -0.105040   0.065893  -0.060269   0.032692
   56  C  4 YY   -0.116811  -0.037387  -0.000516   0.069501  -0.013434
   57  C  4 ZZ    0.079030   0.062705  -0.023413  -0.012304   0.028549
   58  C  4 XY   -0.031230  -0.020241  -0.037361   0.077907   0.081596
   59  C  4 XZ   -0.010819  -0.003065  -0.001653   0.004554   0.006311
   60  C  4 YZ   -0.013552  -0.008138   0.003029   0.007974  -0.002120
   61  H  5  S    0.121351   0.094683  -0.363541  -0.178078   0.525107
   62  H  5  S    0.067052  -0.044480   2.081057   0.319933  -0.993999
   63  H  6  S    0.146536   0.172009   0.194571  -0.047357  -0.093867
   64  H  6  S    0.023246  -0.001682  -1.448218  -0.548156  -0.294258
   65  H  7  S   -0.535318  -0.181412  -0.046486   0.478173  -0.024058
   66  H  7  S   -0.301700   0.186073  -0.302556  -1.853425  -0.399860
   67  H  8  S   -0.363597  -0.235386  -0.007410  -0.370706  -0.369587
   68  H  8  S   -0.034512  -0.172642  -0.207738   1.579237   1.096471

                     36         37         38         39         40
                    0.8675     0.9095     0.9559     0.9932     1.0890
                     A          A          A          A          A   
    1  O  1  S   -0.000104   0.007841   0.001844  -0.001232   0.008131
    2  O  1  S   -0.236010  -0.033627   0.166955  -0.008987  -0.094378
    3  O  1  X   -0.093600   0.059978  -0.196394   0.052962  -0.281425
    4  O  1  Y   -0.048331  -0.200216   0.119357   0.116761   0.259204
    5  O  1  Z   -0.003089  -0.078635   0.007184  -0.930522  -0.008764
    6  O  1  S    0.632245  -0.330162  -0.353445   0.078044  -0.537788
    7  O  1  X    0.073568  -0.225626   0.160945  -0.051699   0.215779
    8  O  1  Y    0.061648   0.518688  -0.122609  -0.182738  -0.326401
    9  O  1  Z    0.000777   0.118929  -0.017781   1.264970   0.024041
   10  O  1 XX   -0.049376  -0.046123   0.043511  -0.001761  -0.027033
   11  O  1 YY   -0.080594  -0.055779   0.015868  -0.007816  -0.060497
   12  O  1 ZZ   -0.095494   0.036196   0.127852  -0.001175   0.076507
   13  O  1 XY    0.022428  -0.030420   0.025368  -0.001790   0.009432
   14  O  1 XZ    0.005792  -0.006523  -0.006412   0.015488   0.004485
   15  O  1 YZ    0.004124  -0.015515  -0.016016   0.031964  -0.014973
   16  C  2  S    0.003972   0.006802  -0.035471   0.001173   0.000622
   17  C  2  S    0.676390  -0.573611  -1.229421   0.053889  -0.320898
   18  C  2  X   -0.287242  -0.076823   0.016632  -0.000993  -0.180502
   19  C  2  Y   -0.079194   0.161610   0.186429  -0.020097  -0.047127
   20  C  2  Z   -0.025153   0.025253   0.022281   0.116997  -0.009533
   21  C  2  S   -1.894859   2.167170   3.731753  -0.245973  -0.268765
   22  C  2  X    0.063746   0.860744   0.382560  -0.111344   0.994111
   23  C  2  Y    0.086860  -0.472208  -1.376580   0.090305   1.272333
   24  C  2  Z    0.029109  -0.021274  -0.117672  -0.647855   0.157603
   25  C  2 XX   -0.025351  -0.063933  -0.138144  -0.005145   0.099803
   26  C  2 YY    0.097999   0.063551  -0.059975   0.008517  -0.087235
   27  C  2 ZZ    0.033021  -0.031341   0.018249  -0.000520  -0.023947
   28  C  2 XY   -0.044786   0.041401  -0.065044  -0.003073  -0.006061
   29  C  2 XZ   -0.009720   0.009670  -0.022706   0.023394   0.037389
   30  C  2 YZ    0.004896   0.013680  -0.015964  -0.026439  -0.025853
   31  C  3  S   -0.023289   0.001443   0.023277  -0.001357   0.027708
   32  C  3  S    0.689321   0.082324   0.446973  -0.055704   0.884809
   33  C  3  X   -0.115456  -0.420975  -0.391990   0.019368   0.245654
   34  C  3  Y   -0.751500  -0.274716  -0.068119   0.003791   0.064875
   35  C  3  Z   -0.060621  -0.026820  -0.007988  -0.053669   0.010165
   36  C  3  S   -0.954189  -0.249447  -1.020494   0.224152  -3.433285
   37  C  3  X    0.274260   1.807212   2.555250  -0.077294  -2.965333
   38  C  3  Y    2.000256   0.208553  -0.207657   0.117251  -0.263364
   39  C  3  Z    0.154493   0.049783   0.034089   0.292169  -0.104642
   40  C  3 XX    0.118455   0.072450   0.069268  -0.005256   0.015014
   41  C  3 YY   -0.062341  -0.077706   0.008957  -0.000292   0.071858
   42  C  3 ZZ    0.060986   0.025571  -0.016601  -0.002015  -0.007157
   43  C  3 XY   -0.072442   0.052563   0.087830  -0.004687  -0.000194
   44  C  3 XZ   -0.001034   0.003679   0.006712   0.037190  -0.017869
   45  C  3 YZ   -0.010871  -0.007277  -0.000934  -0.004398   0.033507
   46  C  4  S   -0.000774   0.029601   0.001677  -0.000569  -0.022409
   47  C  4  S    0.241859  -0.354085   1.201560   0.078430  -0.647243
   48  C  4  X    0.175257  -0.649835  -0.000288   0.043720  -0.208049
   49  C  4  Y   -0.006413  -0.188409   0.072993   0.000600   0.292365
   50  C  4  Z    0.008652  -0.023046  -0.000929   0.043035   0.025399
   51  C  4  S   -0.859450  -0.075846  -3.596437  -0.233527   4.409995
   52  C  4  X    0.087567   1.623698   0.686062  -0.057714  -0.608380
   53  C  4  Y   -0.240253   0.522365   0.294445  -0.055827  -2.096745
   54  C  4  Z   -0.029251   0.061966   0.039423  -0.155023  -0.146836
   55  C  4 XX   -0.018444  -0.091712   0.070932   0.002776  -0.000950
   56  C  4 YY    0.019754   0.124948   0.052482  -0.000305  -0.015298
   57  C  4 ZZ    0.023798  -0.093815   0.036774   0.007716  -0.058843
   58  C  4 XY    0.065196  -0.076116  -0.037508   0.006141   0.156182
   59  C  4 XZ    0.001549  -0.004017  -0.000707  -0.024164   0.015685
   60  C  4 YZ    0.001500   0.014757  -0.000806  -0.017965   0.018252
   61  H  5  S   -0.291598   0.235028  -0.098223  -0.027225   0.500997
   62  H  5  S    0.806232  -0.163831  -0.615544  -0.015170   0.254024
   63  H  6  S   -0.577547  -0.254524   0.023183   0.033986  -0.027930
   64  H  6  S    2.034903   0.806013   0.455208  -0.004010   0.032657
   65  H  7  S   -0.064285   0.535329  -0.254842  -0.018076   0.283530
   66  H  7  S    0.132423  -1.161844   0.656152   0.129794   0.173757
   67  H  8  S   -0.164007   0.530544  -0.126167  -0.036708  -0.446402
   68  H  8  S    0.289308  -1.109513   0.494817   0.096376  -0.949623

                     41         42         43         44         45
                    1.1070     1.1328     1.2744     1.3414     1.4362
                     A          A          A          A          A   
    1  O  1  S   -0.000372   0.014421   0.011151  -0.006938  -0.005392
    2  O  1  S   -0.071433   0.028501   0.393901  -0.185766  -0.062390
    3  O  1  X    0.649347  -0.350472  -0.243432   0.010434   0.015903
    4  O  1  Y    0.014285   0.171808  -0.261254   0.076645   0.002749
    5  O  1  Z    0.046569   0.012759  -0.025266  -0.021106   0.006320
    6  O  1  S    0.030946  -0.553291  -0.605271   0.410244   0.252547
    7  O  1  X   -1.356274   0.505657   0.529209  -0.043364  -0.014063
    8  O  1  Y   -0.047195  -0.181601   0.424216  -0.178547  -0.043651
    9  O  1  Z   -0.100104  -0.000684   0.010068  -0.148568  -0.109523
   10  O  1 XX   -0.036832   0.031096   0.109312  -0.022903  -0.027981
   11  O  1 YY   -0.003777   0.024441   0.135799  -0.030431   0.011553
   12  O  1 ZZ    0.012930   0.023461   0.036643  -0.080694  -0.041392
   13  O  1 XY   -0.116938   0.002299   0.035574   0.023649  -0.011969
   14  O  1 XZ   -0.015822   0.016027   0.001304  -0.167461   0.145113
   15  O  1 YZ   -0.012400   0.000018  -0.019333  -0.144362  -0.137617
   16  C  2  S    0.000017   0.027056   0.030595  -0.003597  -0.003991
   17  C  2  S   -0.049547   0.612321   0.094462   0.009199  -0.044906
   18  C  2  X   -0.400981  -0.081047  -0.195701  -0.001390   0.022473
   19  C  2  Y   -0.017080  -0.160733  -0.001024  -0.010696   0.016717
   20  C  2  Z   -0.031236  -0.028816  -0.014994   0.001212  -0.061917
   21  C  2  S   -0.845147  -2.502748  -1.916592  -0.189565   0.118649
   22  C  2  X    1.843502  -0.117632  -1.503161   0.181972  -0.086910
   23  C  2  Y    0.217815   1.800408   0.457190  -0.028729  -0.249027
   24  C  2  Z    0.158267   0.205035   0.023622   0.118727   0.032950
   25  C  2 XX    0.064502   0.053195  -0.095799   0.075694  -0.041633
   26  C  2 YY   -0.083540   0.002014   0.025297  -0.089432  -0.031020
   27  C  2 ZZ    0.017845   0.001985   0.066823   0.015249   0.068428
   28  C  2 XY    0.152510   0.014765   0.046262   0.021404  -0.059304
   29  C  2 XZ    0.038187   0.049949  -0.040484  -0.396731   0.381021
   30  C  2 YZ   -0.005399  -0.008462   0.059702   0.335328   0.136539
   31  C  3  S   -0.005215  -0.044452  -0.028039   0.000377   0.001298
   32  C  3  S   -0.159186  -1.258306  -0.753112   0.013315   0.031748
   33  C  3  X   -0.014227  -0.041730   0.041201  -0.011110  -0.007796
   34  C  3  Y   -0.162442   0.064697  -0.340640   0.042333   0.009555
   35  C  3  Z   -0.014451   0.005559  -0.019871   0.003669  -0.131249
   36  C  3  S   -0.100639   5.194802   3.089381  -0.055226  -0.120155
   37  C  3  X   -0.306167  -0.561497   0.088244  -0.139821   0.194487
   38  C  3  Y    0.483531  -0.051571   4.097008  -0.402388   0.001143
   39  C  3  Z   -0.000548  -0.058287   0.280918  -0.032246   0.003876
   40  C  3 XX   -0.015872   0.022036  -0.075528  -0.011800  -0.009608
   41  C  3 YY   -0.023674  -0.184845   0.005863   0.038838  -0.058620
   42  C  3 ZZ    0.017181   0.014621   0.032701  -0.028327   0.070824
   43  C  3 XY    0.068690  -0.002843   0.054310  -0.029966  -0.033105
   44  C  3 XZ   -0.007021  -0.019945   0.051829   0.460178   0.280198
   45  C  3 YZ    0.008069   0.017825  -0.030370  -0.266850   0.533707
   46  C  4  S    0.007260   0.021957   0.015655  -0.001941  -0.000190
   47  C  4  S    0.686414   0.981490   0.220793   0.023429  -0.021875
   48  C  4  X    0.031604  -0.275026   0.045492  -0.045238   0.018164
   49  C  4  Y    0.053551   0.042415   0.067432   0.019294  -0.005352
   50  C  4  Z    0.002455   0.011014  -0.006977  -0.120341  -0.095756
   51  C  4  S   -1.411459  -2.615726  -2.235668   0.212481  -0.072020
   52  C  4  X    0.188075   1.113595   1.441970  -0.047709  -0.020467
   53  C  4  Y   -1.033152   0.161106  -2.223866   0.120163   0.103398
   54  C  4  Z   -0.050313   0.029293  -0.125134   0.033863   0.012294
   55  C  4 XX    0.011301   0.005226  -0.115672   0.016550   0.013664
   56  C  4 YY    0.032130   0.108897   0.102915   0.030852  -0.020668
   57  C  4 ZZ    0.043688   0.000687   0.043978  -0.048270   0.006948
   58  C  4 XY    0.026192  -0.007596   0.088664   0.023173   0.020915
   59  C  4 XZ    0.008205   0.003544  -0.023970  -0.249292  -0.463039
   60  C  4 YZ    0.003368   0.024784  -0.014340  -0.225881   0.141507
   61  H  5  S    0.353334   0.405503  -0.235874   0.078430  -0.042417
   62  H  5  S    0.911176   0.524103  -0.139944   0.072555  -0.089766
   63  H  6  S    0.039280  -0.455972   0.724839  -0.104400   0.019872
   64  H  6  S    0.151765  -0.682566   1.228686  -0.182477   0.032853
   65  H  7  S    0.031756   0.093909   0.660404  -0.037541  -0.014763
   66  H  7  S    0.969278   0.131901   0.774564  -0.067017  -0.029941
   67  H  8  S   -0.355848   0.121190  -0.469622   0.032734   0.017262
   68  H  8  S    0.141061   0.070927  -0.594234  -0.004404   0.040268

                     46         47         48         49         50
                    1.5439     1.5635     1.6572     1.7240     1.7978
                     A          A          A          A          A   
    1  O  1  S    0.002247  -0.102518  -0.000366  -0.043674   0.003619
    2  O  1  S    0.041458  -1.601344   0.001361  -0.826628   0.117693
    3  O  1  X   -0.017127   0.020404   0.006324  -0.053909   0.244967
    4  O  1  Y   -0.020333   0.094024   0.005006   0.068824  -0.086283
    5  O  1  Z    0.112248   0.028810  -0.057497   0.012185   0.010196
    6  O  1  S   -0.127455   5.689389  -0.000120   2.911013  -0.282414
    7  O  1  X    0.011999  -0.052037  -0.007593   0.095725  -0.416209
    8  O  1  Y    0.032008  -1.641872  -0.009650  -0.917273   0.146811
    9  O  1  Z    0.083329  -0.230123   0.075983  -0.121570  -0.015885
   10  O  1 XX    0.019340  -0.051078   0.033641  -0.541394  -0.123876
   11  O  1 YY   -0.088463  -0.567289   0.015171  -0.277597  -0.107201
   12  O  1 ZZ    0.097035  -0.539118  -0.050329   0.326235   0.307580
   13  O  1 XY   -0.028583   0.028219   0.048290   0.042548   0.528155
   14  O  1 XZ   -0.109182   0.060806  -0.302871  -0.049362   0.036410
   15  O  1 YZ    0.468182   0.021033  -0.066461  -0.074559  -0.011588
   16  C  2  S    0.001079  -0.023570   0.000389   0.009757   0.021357
   17  C  2  S    0.004540  -0.280047   0.000387   0.367620  -0.107810
   18  C  2  X   -0.026715   0.025292   0.001096   0.203532   0.035975
   19  C  2  Y   -0.021823  -0.038836  -0.001444  -0.165755   0.091841
   20  C  2  Z    0.182490   0.003698   0.004790  -0.002173   0.017836
   21  C  2  S   -0.042262  -2.370857  -0.006665  -2.211332  -0.317960
   22  C  2  X   -0.022944  -1.566501   0.017244  -1.151290   0.753903
   23  C  2  Y    0.099928  -3.061114   0.030827  -1.184813   0.121680
   24  C  2  Z   -0.102428  -0.481086  -0.176437  -0.214223   0.078515
   25  C  2 XX    0.043563   0.246382   0.032051  -0.263930  -0.170062
   26  C  2 YY    0.111849  -0.159875  -0.040619  -0.108153   0.059038
   27  C  2 ZZ   -0.154411  -0.116757   0.008777   0.439577   0.082426
   28  C  2 XY    0.095217  -0.136765   0.018086   0.083140  -0.444569
   29  C  2 XZ   -0.351214   0.019038  -0.252933  -0.038916  -0.077727
   30  C  2 YZ   -0.463146  -0.054602   0.170761  -0.093832  -0.044516
   31  C  3  S   -0.002869  -0.020446   0.000219  -0.007910   0.017176
   32  C  3  S   -0.049497  -0.566813   0.000375   0.039209  -0.293714
   33  C  3  X    0.000387  -0.120184  -0.000844  -0.138094   0.243911
   34  C  3  Y   -0.003774  -0.140565  -0.000931   0.074373  -0.158703
   35  C  3  Z   -0.093456  -0.013570   0.028386   0.000611  -0.009464
   36  C  3  S    0.211747   2.253605  -0.011959   0.841396  -0.085107
   37  C  3  X    0.004485   2.071917  -0.049613   0.817146  -0.438784
   38  C  3  Y    0.141973   1.920721  -0.050894   1.028103   0.313064
   39  C  3  Z    0.018618   0.240500   0.179241   0.113671  -0.006235
   40  C  3 XX    0.001493  -0.054936  -0.001448  -0.132208   0.061470
   41  C  3 YY   -0.023168   0.181376   0.008648  -0.158066  -0.035060
   42  C  3 ZZ    0.020995  -0.119697  -0.006870   0.391117   0.001610
   43  C  3 XY    0.000676  -0.045206   0.007260   0.176858  -0.353535
   44  C  3 XZ    0.160691  -0.042880  -0.125459  -0.006529  -0.017395
   45  C  3 YZ    0.187069   0.029450  -0.004884  -0.045238  -0.009172
   46  C  4  S    0.001118   0.004248  -0.000537   0.015123   0.006250
   47  C  4  S    0.024199   0.178497   0.003080   0.016602   0.077659
   48  C  4  X    0.003143  -0.019610  -0.010208   0.079786  -0.047419
   49  C  4  Y    0.016121   0.040828  -0.001531  -0.098001   0.069687
   50  C  4  Z   -0.082348   0.019052   0.026031  -0.001941  -0.001970
   51  C  4  S   -0.134202  -2.577024   0.050306  -1.201037  -0.015232
   52  C  4  X    0.095013   1.265606  -0.007915   0.161030  -0.013688
   53  C  4  Y   -0.109051  -0.069324   0.005204   0.024099  -0.128757
   54  C  4  Z    0.062252  -0.016004  -0.069272  -0.005817   0.005330
   55  C  4 XX    0.010006  -0.064891   0.001446  -0.029604  -0.141071
   56  C  4 YY    0.001740   0.117557  -0.095701  -0.233209   0.169888
   57  C  4 ZZ   -0.016008  -0.057095   0.094825   0.299874   0.033619
   58  C  4 XY    0.024345   0.011446  -0.007376  -0.064403   0.079122
   59  C  4 XZ   -0.326759   0.031168  -0.083813  -0.013023  -0.016412
   60  C  4 YZ    0.026195   0.030665   0.863847  -0.026996   0.009085
   61  H  5  S   -0.005473  -0.317733   0.004463   0.045701   0.576019
   62  H  5  S    0.010532  -0.738466  -0.000759  -0.285864   0.190931
   63  H  6  S    0.009575   0.243442  -0.015532   0.218813   0.191262
   64  H  6  S    0.033634   0.581265  -0.018644   0.425852   0.058531
   65  H  7  S    0.025902   0.136695  -0.002615   0.281515  -0.201343
   66  H  7  S    0.043334   0.072507  -0.006330   0.068914   0.188440
   67  H  8  S   -0.018285   0.039865   0.000236   0.064837   0.068617
   68  H  8  S   -0.045199  -0.217060  -0.004242   0.156678   0.010115

                     51         52         53         54         55
                    1.8366     1.9218     1.9973     2.0462     2.1614
                     A          A          A          A          A   
    1  O  1  S    0.001637  -0.015566   0.000570  -0.015030  -0.006648
    2  O  1  S    0.019718  -0.002748  -0.278489  -0.437482  -0.087822
    3  O  1  X    0.000736  -0.032192   0.121748  -0.043617  -0.030800
    4  O  1  Y    0.007367  -0.078204   0.236138   0.217688  -0.030807
    5  O  1  Z    0.036456  -0.016169   0.041387   0.028827   0.002123
    6  O  1  S   -0.103512   0.366734   0.394025   1.395794   0.435182
    7  O  1  X    0.001594   0.122910  -0.175172   0.263634   0.098935
    8  O  1  Y    0.028741  -0.100769  -0.169537  -0.482543  -0.169084
    9  O  1  Z   -0.052347   0.004119  -0.039786  -0.053083  -0.041327
   10  O  1 XX   -0.103453  -0.387567   0.147994  -0.603600   0.213151
   11  O  1 YY    0.010196  -0.010799  -0.104314   0.010415  -0.037162
   12  O  1 ZZ    0.101802   0.322233  -0.213293   0.336003  -0.203642
   13  O  1 XY   -0.111283   0.196564   0.228701  -0.266785  -0.104221
   14  O  1 XZ    0.821690  -0.042224   0.026453  -0.124589  -0.047333
   15  O  1 YZ   -0.010141  -0.048178   0.023104  -0.070307   0.058557
   16  C  2  S   -0.000368   0.002208  -0.021897  -0.002607   0.031947
   17  C  2  S    0.008719   0.190287   0.168221   0.051606   0.258563
   18  C  2  X   -0.006912   0.047601   0.230394  -0.137543   0.075578
   19  C  2  Y   -0.002078  -0.119467   0.007280   0.194932  -0.025938
   20  C  2  Z    0.069202  -0.014127   0.009759   0.010884   0.009516
   21  C  2  S    0.012124  -0.970832  -0.394250  -1.471197  -1.083545
   22  C  2  X    0.026520  -0.713096   0.054302  -1.635439  -0.486829
   23  C  2  Y    0.073577   0.119405  -0.059488  -0.609531   0.139336
   24  C  2  Z    0.121071  -0.053003   0.018449  -0.165734   0.037948
   25  C  2 XX    0.003875   0.154038  -0.441422  -0.034617  -0.356147
   26  C  2 YY    0.033149  -0.114491   0.377468   0.224025  -0.114233
   27  C  2 ZZ   -0.041817  -0.107930   0.013588  -0.293470   0.520088
   28  C  2 XY    0.020809   0.070873  -0.073939   0.176445   0.086815
[...]

          ATOMIC WEIGHTS (AMU)

    1     O                15.99491
    2     C                12.00000
    3     C                12.00000
    4     C                12.00000
    5     H                 1.00782
    6     H                 1.00782
    7     H                 1.00782
    8     H                 1.00782

 MODES    1 TO    6 ARE TAKEN AS ROTATIONS AND TRANSLATIONS.

 ANALYZING SYMMETRY OF NORMAL MODES...

     FREQUENCIES IN CM**-1, IR INTENSITIES IN DEBYE**2/AMU-ANGSTROM**2,
     REDUCED MASSES IN AMU.

                            1           2           3           4           5
       FREQUENCY:        14.88        0.20        0.04        0.04        3.28  
        SYMMETRY:         A           A           A           A           A   
    REDUCED MASS:      4.15204     7.17705     6.99872     7.02117     4.17754
    IR INTENSITY:      0.15449     0.00024     0.00000     0.00000     0.06791

  1   O            X -0.00456351  0.13558223  0.03332502  0.00963847 -0.11757455
                   Y -0.01646833 -0.03082642  0.12602533  0.02710244 -0.07321769
                   Z  0.18025225 -0.00184442 -0.02865688  0.13100105 -0.00892247
  2   C            X  0.00093728  0.12913010  0.03345949  0.00964909  0.00071645
                   Y  0.00306047 -0.02992853  0.12601894  0.02715170 -0.08951897
                   Z -0.03255744 -0.00190875 -0.02871835  0.13047770 -0.00742513
  3   C            X  0.00394533  0.12379059  0.03356828  0.00965784  0.09861359
                   Y  0.01344104 -0.03576925  0.12613682  0.02718562  0.01782103
                   Z -0.14962611 -0.00252238 -0.02876450  0.13004707  0.00430816
  4   C            X  0.00022509  0.12580072  0.03352623  0.00965390  0.06183334
                   Y  0.00168946 -0.04262248  0.12627203  0.02716416  0.14368954
                   Z -0.02317563 -0.00300131 -0.02875147  0.13022493  0.01268730
  5   H            X  0.00397709  0.12684543  0.03350587  0.00965288  0.04273176
                   Y  0.01393585 -0.02444490  0.12589726  0.02716867 -0.18993407
                   Z -0.15487423 -0.00149054 -0.02874583  0.13028343 -0.01517375
  6   H            X  0.00893792  0.11821333  0.03368029  0.00966612  0.20158613
                   Y  0.03042739 -0.03423043  0.12611021  0.02722773 -0.01060452
                   Z -0.34324911 -0.00256198 -0.02880958  0.12957717  0.00560834
  7   H            X -0.00519822  0.13146011  0.03341440  0.00964391 -0.04188656
                   Y -0.01462490 -0.04401503  0.12629686  0.02712377  0.16936889
                   Z  0.17021645 -0.00293864 -0.02870388  0.13069506  0.01092119
  8   H            X  0.00257552  0.12195772  0.03360702  0.00966096  0.13248273
                   Y  0.00805556 -0.04696622  0.12636281  0.02718586  0.22332847
                   Z -0.10751980 -0.00345308 -0.02878476  0.12990908  0.02123256

 TRANS. SAYVETZ    X -0.00132780  7.21565966  1.87493644  0.54062246  0.39090091
                   Y -0.00702809 -1.94373648  7.06551336  1.52107535 -0.11354867
                   Z -0.02002545 -0.12921671 -1.60912039  7.30888385 -0.00510497
               TOTAL  0.02126443  7.47399176  7.48506073  7.48503347  0.40709076

   ROT. SAYVETZ    X 12.20583730  0.02424337  0.00451905  0.03766755 -0.47214548
                   Y  4.05898408  0.08669451  0.00212192  0.02296471 -1.60162139
                   Z  0.65892062 -1.04136050  0.02137526  0.00240198 19.12118789
               TOTAL 12.87990654  1.04524417  0.02195054  0.04418136 19.19395579

                            6           7           8           9          10
       FREQUENCY:        15.34      186.80      288.46      562.03      684.85  
        SYMMETRY:         A           A           A           A           A   
    REDUCED MASS:      2.98351     1.84182     3.58096     1.25637     2.78057
    IR INTENSITY:      0.00005     0.16499     0.16120     0.15054     0.25669

  1   O            X  0.00043034  0.00164159  0.14245187 -0.00088503  0.07485512
                   Y  0.00351866  0.00763841 -0.05336222 -0.00243919 -0.08808592
                   Z -0.04642099 -0.08300384 -0.00109652  0.02859968 -0.00609451
  2   C            X  0.00377134 -0.00294617 -0.01146163  0.00082135 -0.11455708
                   Y  0.01119986 -0.01129520 -0.03338345  0.00110879 -0.04702384
                   Z -0.13181687  0.12282208 -0.00291540 -0.01084314 -0.00718020
  3   C            X  0.00146019  0.00350973 -0.04804231  0.00356810 -0.02210671
                   Y  0.00162196  0.00999270 -0.05921266  0.01079050  0.14835323
                   Z -0.01669836 -0.11211990 -0.00651788 -0.12649590  0.01213968
  4   C            X -0.00539981 -0.00183374 -0.10419718 -0.00099718  0.02439067
                   Y -0.01637816 -0.00533156  0.12562980 -0.00217029  0.03301832
                   Z  0.19796834  0.06148675  0.00822883  0.02484068  0.00382978
  5   H            X  0.00839417 -0.01208578 -0.05599969 -0.00687747 -0.13165183
                   Y  0.02620664 -0.04728617  0.07942071 -0.02954805 -0.00533297
                   Z -0.30754328  0.51173576  0.00646885  0.31918379 -0.00207378
  6   H            X  0.00445936  0.00983996  0.02869597 -0.01059027  0.11025198
                   Y  0.01008344  0.02962334 -0.07785713 -0.03045041  0.11023839
                   Z -0.11462862 -0.33732486 -0.00646204  0.34894906  0.01480156
  7   H            X -0.00884375 -0.01046906 -0.31193265  0.01200783  0.38957325
                   Y -0.02409753 -0.02921258  0.17638847  0.03375512 -0.06139259
                   Z  0.29200805  0.34674718  0.00705123 -0.40343876  0.00633083
  8   H            X -0.00807420  0.00212298  0.02729909 -0.02085584 -0.21970041
                   Y -0.02316985  0.00463470  0.27579335 -0.05088887 -0.24503967
                   Z  0.28388228 -0.06351613  0.02470715  0.62094572 -0.02697502

 TRANS. SAYVETZ    X  0.00076770  0.00034021 -0.00028670  0.00002973 -0.00034181
                   Y  0.00254135 -0.00000412  0.00017642 -0.00000247  0.00014228
                   Z  0.00585906 -0.00014887  0.00002171  0.00003885  0.00001165
               TOTAL  0.00643245  0.00037138  0.00033733  0.00004899  0.00037042

   ROT. SAYVETZ    X -3.90646218 -0.01104209 -0.01603805  0.01275263  0.00562487
                   Y-13.67400003  0.04389541  0.02533635  0.00190978 -0.00859344
                   Z -1.17856205  0.05439789  0.00025598 -0.00102887  0.00381223
               TOTAL 14.26981892  0.07076627  0.02998692  0.01293582  0.01095534

                           11          12          13          14          15
       FREQUENCY:       940.27     1001.99     1031.47     1039.44     1076.68  
        SYMMETRY:         A           A           A           A           A   
    REDUCED MASS:      3.16963     1.35876     1.15471     1.60766     1.47352
    IR INTENSITY:      1.43606     0.32658     0.42295     0.31176     0.12132

  1   O            X -0.01984997  0.00027201 -0.00090345 -0.00054665 -0.01935607
                   Y -0.03061567  0.00029375 -0.00142819 -0.00406816  0.04679683
                   Z -0.00327441 -0.00675360  0.02312900  0.03483360  0.00405192
  2   C            X  0.19233732 -0.00032129  0.00249840  0.00344397  0.02650548
                   Y -0.05134925 -0.00243605  0.00875417  0.01333649  0.01166086
                   Z  0.00050055  0.02375424 -0.09190836 -0.14920560  0.00049225
  3   C            X -0.05776718 -0.00218080  0.00092632 -0.00316343  0.02018505
                   Y  0.08427502 -0.00458315 -0.00094155 -0.00685005 -0.11749669
                   Z  0.00634651  0.06323471 -0.00959346  0.09865692 -0.00766796
  4   C            X -0.09670957  0.00453121  0.00055550  0.00088800 -0.05975692
                   Y  0.02747095  0.01126167  0.00474361 -0.00145754  0.08077264
                   Z -0.00028480 -0.13671779 -0.04682010  0.00457375  0.00518440
  5   H            X  0.26037912  0.00276849 -0.00784448 -0.01434024 -0.00980861
                   Y -0.21887108  0.00686087 -0.02686605 -0.05778536  0.10872522
                   Z -0.01334076 -0.08897041  0.31576836  0.61303791  0.01480263
  6   H            X -0.19918555  0.00563573 -0.00977084  0.00291553  0.45727613
                   Y  0.13176323  0.02616624 -0.05459313  0.04033825 -0.23565195
                   Z  0.00861254 -0.28336770  0.58795674 -0.41643550 -0.02384783
  7   H            X  0.04857360 -0.01375575 -0.01504084 -0.00033650  0.39050848
                   Y -0.01347266 -0.03197945 -0.05256101  0.01607936 -0.03843424
                   Z  0.00048978  0.38685340  0.62159800 -0.18276357 -0.00046538
  8   H            X -0.24561239 -0.02312885 -0.00039376  0.00652979 -0.37518107
                   Y -0.13265282 -0.05622623  0.00717047  0.00605963 -0.27891662
                   Z -0.02191765  0.68479128 -0.12632850 -0.01924985 -0.03108871

 TRANS. SAYVETZ    X -0.00007990 -0.00000300  0.00000354  0.00000638  0.00002093
                   Y  0.00000739 -0.00000224 -0.00001134  0.00000550 -0.00000124
                   Z  0.00001259  0.00000937  0.00002492  0.00000782 -0.00000269
               TOTAL  0.00008122  0.00001009  0.00002761  0.00001149  0.00002114

   ROT. SAYVETZ    X  0.00234517  0.00400570 -0.00013466  0.00263820  0.00069524
                   Y -0.00029674 -0.00482962  0.00032911  0.00189873 -0.00608910
                   Z  0.00199874  0.00089909  0.00146368  0.00106035  0.00136274
               TOTAL  0.00309562  0.00633871  0.00150625  0.00341900  0.00627834

                           16          17          18          19          20
       FREQUENCY:      1325.62     1445.47     1453.12     1685.97     1806.81  
        SYMMETRY:         A           A           A           A           A   
    REDUCED MASS:      1.32305     1.15982     1.29935     4.69717     7.64449
    IR INTENSITY:      0.05856     0.06934     0.93396     1.66095     2.29102

  1   O            X  0.00589467 -0.03454215 -0.02897695 -0.00247856 -0.01859839
                   Y  0.01251545 -0.05010735 -0.03460313 -0.04861293 -0.13877979
                   Z  0.00132294 -0.00545474 -0.00386667 -0.00455418 -0.01320505
  2   C            X  0.00450513  0.04537621  0.07510921 -0.02285445  0.02079248
                   Y -0.00271592 -0.00835135 -0.01588651  0.07224837  0.21209829
                   Z -0.00028852  0.00044986  0.00040617  0.00615961  0.01992484
  3   C            X  0.01624878  0.06215128 -0.09738154  0.18193150 -0.05575284
                   Y  0.09709073  0.02156539  0.03403307  0.01504731 -0.02502910
                   Z  0.00921772  0.00364173  0.00021370  0.00678892 -0.00381510
  4   C            X -0.05600466  0.01857930 -0.01360454 -0.16546890  0.04667588
                   Y -0.09155590  0.00393272 -0.02973273 -0.03987116  0.01613183
                   Z -0.00946594  0.00096522 -0.00301339 -0.00862429  0.00282946
  5   H            X  0.06340280 -0.23101599 -0.10985117 -0.01240169  0.13498979
                   Y -0.12110535  0.70164701  0.47754947  0.02287470 -0.11376290
                   Z -0.00883597  0.05831452  0.04130681  0.00129536 -0.00711527
  6   H            X  0.71612775 -0.10568455  0.25379824 -0.11789620  0.09789263
                   Y -0.08469396  0.07514909 -0.05715403  0.11624125 -0.07777316
                   Z  0.01202508  0.00366819  0.00180521  0.00603978 -0.00414550
  7   H            X -0.44076533 -0.36758125  0.37302030  0.20678269 -0.05305770
                   Y -0.00144761  0.09468598 -0.11845836 -0.14943621  0.05193152
                   Z -0.01537470 -0.00408134  0.00207690 -0.00659635  0.00274664
  8   H            X -0.01267140 -0.24906088  0.36990068  0.03900507 -0.02437541
                   Y -0.02493822 -0.28036558  0.38526885  0.21708090 -0.07739208
                   Z -0.00241363 -0.03154074  0.04469000  0.02005801 -0.00740806

 TRANS. SAYVETZ    X -0.00007888 -0.00001971 -0.00019828  0.00004707 -0.00022764
                   Y  0.00000845  0.00004058  0.00007528 -0.00008675 -0.00005259
                   Z  0.00000613  0.00000050  0.00001300  0.00000670  0.00000996
               TOTAL  0.00007957  0.00004512  0.00021249  0.00009893  0.00023385

   ROT. SAYVETZ    X  0.00121528  0.00158920 -0.00266887 -0.00147060  0.00056822
                   Y -0.00018523 -0.00108846  0.00057693  0.00013839  0.00000615
                   Z -0.00063061 -0.00051651 -0.00012943 -0.00112610 -0.00002487
               TOTAL  0.00138162  0.00199426  0.00273358  0.00185739  0.00056880

                           21          22          23          24
       FREQUENCY:      2922.57     3169.08     3182.29     3260.82  
        SYMMETRY:         A           A           A           A   
    REDUCED MASS:      1.08443     1.06096     1.08972     1.11767
    IR INTENSITY:      3.66971     0.19304     0.25793     0.08611

  1   O            X  0.00042543  0.00033999 -0.00005038  0.00015142
                   Y -0.00178878  0.00046887 -0.00029376  0.00027826
                   Z -0.00015378  0.00005360 -0.00002948  0.00003076
  2   C            X -0.07582269 -0.00244919 -0.00462667 -0.00047549
                   Y -0.02542545 -0.00100154  0.00100441 -0.00019973
                   Z -0.00414568 -0.00015386 -0.00001866 -0.00002829
  3   C            X  0.00219094 -0.00734666 -0.02405107 -0.00319575
                   Y  0.00201626 -0.04106308 -0.06728989 -0.00864921
                   Z  0.00024123 -0.00377526 -0.00656954 -0.00084329
  4   C            X -0.00032082 -0.05134769  0.03532793  0.03043062
                   Y  0.00004635 -0.01226291  0.02021946 -0.08881838
                   Z -0.00000311 -0.00276513  0.00286880 -0.00631772
  5   H            X  0.89143337  0.01692295  0.03763691 -0.00013214
                   Y  0.34093063  0.00475915  0.00801338 -0.00087931
                   Z  0.05251549  0.00082373  0.00161915 -0.00009793
  6   H            X -0.02146423  0.13431485  0.20754432  0.02677259
                   Y -0.03912619  0.49676836  0.76352216  0.09028180
                   Z -0.00405432  0.04706760  0.07232385  0.00861136
  7   H            X  0.00473483  0.12878288 -0.10031606  0.16282101
                   Y  0.00631907  0.54115039 -0.41965996  0.62010320
                   Z  0.00066870  0.04920617 -0.03823698  0.05691545
  8   H            X -0.00096396  0.44254701 -0.22322898 -0.51047514
                   Y -0.00150875 -0.40324631  0.20129256  0.44898390
                   Z -0.00016215 -0.01823715  0.00904693  0.01968499

 TRANS. SAYVETZ    X -0.00004906 -0.00006261  0.00001951  0.00000894
                   Y  0.00004860  0.00000425  0.00000575 -0.00000232
                   Z  0.00000047  0.00000366 -0.00000125  0.00000018
               TOTAL  0.00006906  0.00006286  0.00002038  0.00000924

   ROT. SAYVETZ    X -0.00006047  0.00073614 -0.00012839 -0.00017846
                   Y  0.00028247  0.00039471 -0.00031609 -0.00048152
                   Z -0.00031580 -0.00017366 -0.00000150  0.00045675
               TOTAL  0.00042799  0.00085315  0.00034117  0.00068726

 REFERENCE ON SAYVETZ CONDITIONS - A. SAYVETZ, J.CHEM.PHYS., 7, 383-389(1939).

 NOTE - THE MODES J,K ARE ORTHONORMALIZED ACCORDING TO
 SUM ON I   M(I) * (X(I,J)*X(I,K) + Y(I,J)*Y(I,K) + Z(I,J)*Z(I,K)) = DELTA(J,K)

  MODE FREQ(CM**-1)  SYMMETRY  RED. MASS  IR INTENS.
     1      14.878    A        4.152037    0.154490
     2       0.198    A        7.177054    0.000237
     3       0.036    A        6.998717    0.000000
     4       0.039    A        7.021168    0.000001
     5       3.280    A        4.177545    0.067911
     6      15.345    A        2.983512    0.000048
     7     186.802    A        1.841816    0.164991
     8     288.465    A        3.580962    0.161196
     9     562.027    A        1.256367    0.150542
    10     684.850    A        2.780566    0.256687
    11     940.271    A        3.169633    1.436059
    12    1001.993    A        1.358757    0.326581
    13    1031.469    A        1.154705    0.422955
    14    1039.441    A        1.607661    0.311758
    15    1076.681    A        1.473518    0.121316
    16    1325.623    A        1.323054    0.058561
    17    1445.472    A        1.159821    0.069343
    18    1453.123    A        1.299355    0.933962
    19    1685.974    A        4.697169    1.660946
    20    1806.807    A        7.644489    2.291016
    21    2922.569    A        1.084429    3.669705
    22    3169.084    A        1.060964    0.193037
    23    3182.292    A        1.089724    0.257933
    24    3260.823    A        1.117668    0.086106

     -------------------------------
     THERMOCHEMISTRY AT T=  298.15 K
     -------------------------------

 USING IDEAL GAS, RIGID ROTOR, HARMONIC NORMAL MODE APPROXIMATIONS.
 P=  1.01325E+05 PASCAL.
 ALL FREQUENCIES ARE SCALED BY   1.00000
 THE MOMENTS OF INERTIA ARE (IN AMU*BOHR**2)
             79.09984           290.41549           369.51362
 THE ROTATIONAL SYMMETRY NUMBER IS  1.0
 THE ROTATIONAL CONSTANTS ARE (IN GHZ)
     22.79509     6.20865     4.87963
      7 -     24 VIBRATIONAL MODES ARE USED IN THERMOCHEMISTRY.
 THE HARMONIC ZERO POINT ENERGY IS (SCALED BY   1.000)
        0.061656 HARTREE/MOLECULE    13531.882823 CM**-1/MOLECULE 
       38.689633 KCAL/MOL              161.877426 KJ/MOL

               Q               LN Q
 ELEC.     1.00000E+00       0.000000
 TRANS.    1.64832E+07      16.617850
 ROT.      3.29803E+04      10.403665
 VIB.      2.59743E+00       0.954523
 TOT.      1.41201E+12      27.976039

              E         H         G         CV        CP        S
           KJ/MOL    KJ/MOL    KJ/MOL   J/MOL-K   J/MOL-K   J/MOL-K
 ELEC.      0.000     0.000     0.000     0.000     0.000     0.000
 TRANS.     3.718     6.197   -41.195    12.472    20.786   158.954
 ROT.       3.718     3.718   -25.790    12.472    12.472    98.972
 VIB.     165.862   165.862   159.511    32.243    32.243    21.301
 TOTAL    173.299   175.778    92.526    57.186    65.501   279.227
 VIB. THERMAL CORRECTION E(T)-E(0) = H(T)-H(0) =      3984.832 J/MOL

              E         H         G         CV        CP        S
         KCAL/MOL  KCAL/MOL  KCAL/MOL CAL/MOL-K CAL/MOL-K CAL/MOL-K
 ELEC.      0.000     0.000     0.000     0.000     0.000     0.000
 TRANS.     0.889     1.481    -9.846     2.981     4.968    37.991
 ROT.       0.889     0.889    -6.164     2.981     2.981    23.655
 VIB.      39.642    39.642    38.124     7.706     7.706     5.091
 TOTAL     41.419    42.012    22.114    13.668    15.655    66.737
 VIB. THERMAL CORRECTION E(T)-E(0) = H(T)-H(0) =       952.398 CAL/MOL
 ......END OF NORMAL COORDINATE ANALYSIS......
 STEP CPU TIME =     0.00 TOTAL CPU TIME =        783.7 (     13.1 MIN)
 TOTAL WALL CLOCK TIME=        811.6 SECONDS, CPU UTILIZATION IS    96.57%
               1080583  WORDS OF DYNAMIC MEMORY USED
 EXECUTION OF GAMESS TERMINATED NORMALLY Tue Oct  4 21:31:25 2022
 DDI: 263640 bytes (0.3 MB / 0 MWords) used by master data server.

 ----------------------------------------
 CPU timing information for all processes
 ========================================
 0: 779.648 + 4.88 = 783.737
 ----------------------------------------
 ddikick.x: exited gracefully.
----- accounting info -----
Files used on the master node chemcompute-node-1.novalocal were:
-rw-r--r--. 1 chemcomp chemcomp     1029 Oct  4 21:17 /scratch/120810/460767.F05
-rw-rw-r--. 1 chemcomp chemcomp 65536000 Oct  4 21:31 /scratch/120810/460767.F10
-rw-rw-r--. 1 chemcomp chemcomp  4143136 Oct  4 21:31 /scratch/120810/460767.F22
Tue Oct  4 21:31:28 UTC 2022
0.090u 0.042s 13:34.96 0.0%	0+0k 8+208io 0pf+0w
Finishing Up...
Looking for IR data...
Looking for Raman data...
vibramans not found
Looking for thermodynamics data...
Looking for UV-Vis data...
chemcompute.org
{'UTCtimestamp': '2022-10-04T21:31:30.559786', 'cluster': 'jetstream2', 'clusterJobNumber': '120810', 'status': 'COMPLETE', 'nodeList': 'chemcompute-node-1'}
120810
